<?xml version="1.0"?>
<VTKFile type="UnstructuredGrid"  version="0.1"  >
<UnstructuredGrid>
<Piece  NumberOfPoints="4448" NumberOfCells="7310">
<Points>
<DataArray  type="Float64"  NumberOfComponents="3"  format="ascii">0 0 0  0 1 0  5 1 0  5 0 0  2.685965962967975 0.6199970297988864 0  2.585965962967975 0.7199970297988864 0  2.485965962967974 0.6199970297988864 0  2.585965962967975 0.5199970297988864 0  2.887457126027364 0.718961842035438 0  2.787457126027364 0.818961842035438 0  2.687457126027364 0.718961842035438 0  2.787457126027364 0.618961842035438 0  0.8769895867556056 0.290401976457433 0  0.7769895867556056 0.390401976457433 0  0.6769895867556056 0.290401976457433 0  0.7769895867556056 0.190401976457433 0  4.376177735165038 0.8808430758872411 0  4.276177735165039 0.9808430758872411 0  4.176177735165039 0.8808430758872411 0  4.276177735165039 0.7808430758872411 0  0.6141057752375989 0.3768652333524785 0  0.5141057752375989 0.4768652333524784 0  0.4141057752375989 0.3768652333524785 0  0.5141057752375989 0.2768652333524785 0  4.630582754177703 0.6406480284476114 0  4.530582754177703 0.7406480284476114 0  4.430582754177704 0.6406480284476114 0  4.530582754177703 0.5406480284476114 0  4.896214045309746 0.4187630456168357 0  4.796214045309746 0.5187630456168357 0  4.696214045309747 0.4187630456168357 0  4.796214045309746 0.3187630456168358 0  2.155589080094151 0.2204087294390689 0  2.055589080094151 0.320408729439069 0  1.955589080094151 0.2204087294390689 0  2.055589080094151 0.1204087294390689 0  2.404826935341426 0.8737119164346264 0  2.304826935341426 0.9737119164346264 0  2.204826935341426 0.8737119164346264 0  2.304826935341426 0.7737119164346264 0  2.964213492896404 0.1174061699058604 0  2.864213492896404 0.2174061699058604 0  2.764213492896404 0.1174061699058604 0  2.864213492896404 0.01740616990586039 0  3.582837128300153 0.298032837113745 0  3.482837128300153 0.3980328371137449 0  3.382837128300153 0.298032837113745 0  3.482837128300153 0.1980328371137449 0  0.8088212649691964 0.7502337282029031 0  0.7088212649691964 0.8502337282029031 0  0.6088212649691964 0.7502337282029031 0  0.7088212649691964 0.6502337282029031 0  4.223801910336278 0.5002442229252277 0  4.123801910336279 0.6002442229252277 0  4.023801910336279 0.5002442229252277 0  4.123801910336279 0.4002442229252278 0  4.922353386628925 0.2017240624096503 0  4.822353386628925 0.3017240624096503 0  4.722353386628925 0.2017240624096503 0  4.822353386628925 0.1017240624096503 0  2.206072007496676 0.5374870999379825 0  2.106072007496676 0.6374870999379825 0  2.006072007496676 0.5374870999379825 0  2.106072007496676 0.4374870999379825 0  4.32315537674505 0.6819384234094167 0  4.22315537674505 0.7819384234094167 0  4.123155376745051 0.6819384234094167 0  4.22315537674505 0.5819384234094167 0  3.715487240450959 0.1001729247534523 0  3.615487240450959 0.2001729247534523 0  3.515487240450959 0.1001729247534523 0  3.615487240450959 0.0001729247534522776 0  1.763896808309352 0.814597031442381 0  1.663896808309352 0.914597031442381 0  1.563896808309352 0.814597031442381 0  1.663896808309352 0.7145970314423811 0  2.134954894404413 0.8503736436135857 0  2.034954894404413 0.9503736436135857 0  1.934954894404413 0.8503736436135857 0  2.034954894404413 0.7503736436135857 0  4.032081200799731 0.8883073324077129 0  3.932081200799732 0.9883073324077128 0  3.832081200799732 0.8883073324077129 0  3.932081200799732 0.7883073324077129 0  1.720272337623273 0.315263346238785 0  1.620272337623273 0.415263346238785 0  1.520272337623273 0.315263346238785 0  1.620272337623273 0.215263346238785 0  2.849341852368551 0.3377485432764519 0  2.749341852368551 0.4377485432764519 0  2.649341852368551 0.3377485432764519 0  2.749341852368551 0.2377485432764519 0  0.353954769751299 0.3076959497508149 0  0.253954769751299 0.4076959497508149 0  0.153954769751299 0.3076959497508149 0  0.253954769751299 0.2076959497508149 0  4.220679522741156 0.1330663414655305 0  4.120679522741156 0.2330663414655305 0  4.020679522741156 0.1330663414655305 0  4.120679522741156 0.03306634146553053 0  4.03846295264503 0.2615603127259356 0  3.93846295264503 0.3615603127259356 0  3.83846295264503 0.2615603127259356 0  3.93846295264503 0.1615603127259356 0  1.258185597494404 0.7951208458533302 0  1.158185597494404 0.8951208458533302 0  1.058185597494404 0.7951208458533302 0  1.158185597494404 0.6951208458533302 0  2.66756980469976 0.2103205042379263 0  2.567569804699759 0.3103205042379263 0  2.467569804699759 0.2103205042379263 0  2.567569804699759 0.1103205042379263 0  3.066183082511723 0.4648897272298002 0  2.966183082511723 0.5648897272298001 0  2.866183082511723 0.4648897272298002 0  2.966183082511723 0.3648897272298002 0  3.876160132013113 0.5302140905286264 0  3.776160132013113 0.6302140905286264 0  3.676160132013113 0.5302140905286264 0  3.776160132013113 0.4302140905286265 0  4.435786682356577 0.1191533144960393 0  4.335786682356577 0.2191533144960393 0  4.235786682356578 0.1191533144960393 0  4.335786682356577 0.01915331449603927 0  3.657464697025493 0.6000278738124513 0  3.557464697025493 0.7000278738124512 0  3.457464697025493 0.6000278738124513 0  3.557464697025493 0.5000278738124513 0  3.695085226088024 0.8183916024406818 0  3.595085226088024 0.9183916024406817 0  3.495085226088024 0.8183916024406818 0  3.595085226088024 0.7183916024406818 0  0.6716618480696921 0.5839650746876788 0  0.5716618480696921 0.6839650746876788 0  0.4716618480696921 0.5839650746876788 0  0.5716618480696921 0.4839650746876788 0  3.384667051383998 0.4223896768935983 0  3.284667051383998 0.5223896768935983 0  3.184667051383998 0.4223896768935983 0  3.284667051383998 0.3223896768935983 0  1.283504513865784 0.1674438639117045 0  1.183504513865784 0.2674438639117045 0  1.083504513865784 0.1674438639117045 0  1.183504513865784 0.06744386391170451 0  3.360557185844586 0.8746680565940553 0  3.260557185844585 0.9746680565940553 0  3.160557185844585 0.8746680565940553 0  3.260557185844585 0.7746680565940554 0  1.540529467032703 0.1794710788309493 0  1.440529467032703 0.2794710788309492 0  1.340529467032703 0.1794710788309493 0  1.440529467032703 0.07947107883094925 0  0.328482578588082 0.861302184907903 0  0.228482578588082 0.961302184907903 0  0.128482578588082 0.861302184907903 0  0.228482578588082 0.761302184907903 0  2.433715755666527 0.5671313263739527 0  2.333715755666527 0.6671313263739527 0  2.233715755666527 0.5671313263739527 0  2.333715755666527 0.4671313263739527 0  1.230126416042657 0.4719216314495289 0  1.130126416042657 0.5719216314495289 0  1.030126416042657 0.4719216314495289 0  1.130126416042657 0.3719216314495289 0  0.6116895212263961 0.1109717124183122 0  0.5116895212263961 0.2109717124183123 0  0.4116895212263961 0.1109717124183122 0  0.5116895212263961 0.01097171241831223 0  1.826399793314543 0.5107585635357751 0  1.726399793314543 0.6107585635357751 0  1.626399793314543 0.5107585635357751 0  1.726399793314543 0.4107585635357751 0  1.55211198904505 0.4715062703352436 0  1.45211198904505 0.5715062703352436 0  1.35211198904505 0.4715062703352436 0  1.45211198904505 0.3715062703352436 0  4.634586060050256 0.3908052747188366 0  4.534586060050256 0.4908052747188366 0  4.434586060050257 0.3908052747188366 0  4.534586060050256 0.2908052747188367 0  4.402298611127895 0.3855442737855176 0  4.302298611127895 0.4855442737855176 0  4.202298611127896 0.3855442737855176 0  4.302298611127895 0.2855442737855176 0  1.952879969939083 0.1350676669858752 0  1.852879969939083 0.2350676669858752 0  1.752879969939083 0.1350676669858752 0  1.852879969939083 0.03506766698587516 0  0.2569000568572125 0.624378330560713 0  0.1569000568572125 0.724378330560713 0  0.05690005685721253 0.624378330560713 0  0.1569000568572125 0.524378330560713 0  3.161687137399175 0.8244152317893645 0  3.061687137399175 0.9244152317893645 0  2.961687137399175 0.8244152317893645 0  3.061687137399175 0.7244152317893645 0  2.395032016636657 0.3643063846039553 0  2.295032016636657 0.4643063846039552 0  2.195032016636657 0.3643063846039553 0  2.295032016636657 0.2643063846039553 0  2.617463499593836 0.8856904558897764 0  2.517463499593836 0.9856904558897763 0  2.417463499593836 0.8856904558897764 0  2.517463499593836 0.7856904558897764 0  3.421102286656348 0.6813514212092414 0  3.321102286656348 0.7813514212092414 0  3.221102286656348 0.6813514212092414 0  3.321102286656348 0.5813514212092414 0  2.449787661472024 0.1680638375564639 0  2.349787661472024 0.2680638375564639 0  2.249787661472024 0.1680638375564639 0  2.349787661472024 0.06806383755646392 0  3.355617450537308 0.1968805330923727 0  3.255617450537307 0.2968805330923727 0  3.155617450537307 0.1968805330923727 0  3.255617450537307 0.09688053309237274 0  1.503825997254619 0.6923599081039139 0  1.403825997254619 0.7923599081039139 0  1.303825997254619 0.6923599081039139 0  1.403825997254619 0.5923599081039139 0  4.810628718351659 0.8986629234755887 0  4.710628718351659 0.9986629234755887 0  4.610628718351659 0.8986629234755887 0  4.710628718351659 0.7986629234755888 0  0.5404316710680832 0.8720628158042852 0  0.4404316710680832 0.9720628158042852 0  0.3404316710680833 0.8720628158042852 0  0.4404316710680832 0.7720628158042853 0  4.973460784063308 0.7469193359422902 0  4.873460784063308 0.8469193359422902 0  4.773460784063309 0.7469193359422902 0  4.873460784063308 0.6469193359422902 0  1.004252616630607 0.8231219524210824 0  0.9042526166306074 0.9231219524210824 0  0.8042526166306074 0.8231219524210824 0  0.9042526166306074 0.7231219524210825 0  0.28081752570913 0.1080256308500591 0  0.18081752570913 0.2080256308500591 0  0.08081752570912998 0.1080256308500591 0  0.18081752570913 0.008025630850059071 0  1.069684414289768 0.1432175458177037 0  0.9696844142897676 0.2432175458177037 0  0.8696844142897676 0.1432175458177037 0  0.9696844142897676 0.04321754581770368 0  2.027723889848873 0.4050114807802901 0  1.927723889848873 0.5050114807802901 0  1.827723889848873 0.4050114807802901 0  1.927723889848873 0.3
[...]
<PointData  Scalars="f_19"> 
<DataArray  type="Float64"  Name="f_19"  format="ascii">1.0000000000000000e+00  1.0000000000000000e+00  5.9100581614882518e-13  -1.0186974054203432e-06  1.2018096105170357e-04  4.2529371230602443e-03  1.3644071378888473e-02  2.9030481318405806e-03  2.6613210632502580e-04  2.6195103081030522e-04  2.8555207053265579e-03  -1.2567187811205030e-04  4.7860645352735498e-01  8.4808497530823679e-01  9.4046172714080489e-01  6.1891897057497325e-01  1.6308095225649852e-08  1.2648265989166440e-11  -4.0818175635291103e-12  3.5954610950361876e-08  9.9340215809776700e-01  9.6947822057474087e-01  1.0069470599093298e+00  9.9993447362673016e-01  -1.3766565834269853e-06  -2.6498833318525503e-07  -1.1104646033921920e-06  2.2998274319419990e-06  -1.4823757639454053e-06  4.7891627432034750e-06  4.2889306234503029e-05  2.5022566181851842e-05  -8.3533715982200612e-05  8.5702685334409952e-03  1.6882268503312342e-02  1.4281326164784867e-03  4.3149736073865681e-04  2.5217420994264280e-03  1.5902794157064321e-02  1.9574898666923121e-02  -9.5953226110928833e-07  2.9178162959842012e-05  -1.6975966834940110e-06  4.9050856672056162e-05  -9.6230872485143193e-05  -2.4189523317954287e-04  5.8651730296182202e-06  9.7019619033320766e-08  7.6817716742493599e-03  4.0729693334496431e-01  8.2946135670112675e-01  -3.6722849511226273e-03  2.0886023695509089e-05  3.0860014617013015e-08  -7.2438703325751168e-05  -3.0399078895227087e-05  -2.1038581397504697e-08  1.8472023485204777e-05  7.5085499434279988e-05  2.3931675642586073e-05  -1.0885943248951741e-05  -7.6076113052049460e-05  -2.4130664276058838e-04  -2.5061948823003376e-04  -1.2667036960592750e-07  3.2784324124310981e-10  1.1264211243067313e-09  4.2461609492895598e-07  -6.2128971335190129e-08  -4.7163507795341355e-07  1.6382751532735885e-09  -2.6087776215929970e-11  1.2933283672979747e-02  6.8388382351605645e-02  7.2254297617075330e-02  5.2060790512086787e-04  5.5432825831817398e-02  8.4892540934088989e-02  9.6038999553585025e-02  7.3686162029177230e-02  5.0009626916718917e-10  -2.2665419697548290e-13  6.8356168385119107e-11  4.2413142260152911e-08  -1.3804506996574306e-03  2.1951938250211529e-02  1.2373307826058438e-01  3.8477939141786724e-02  -1.7162336793934002e-05  4.0311864769512537e-05  2.9060272211344370e-06  2.8409833997088199e-05  8.6236377312184331e-01  7.9425818827636396e-01  7.6027790654994509e-01  5.4446030428788261e-01  2.7036886228719629e-06  -3.6264844555067188e-05  6.5277093967158686e-08  3.1739307672057958e-09  -5.6274911454983689e-05  -1.7185441067462225e-04  -3.2219233424866676e-06  5.7513025648870124e-08  1.0562992015555452e-01  -1.9518978785424065e-02  4.1666161109985007e-02  3.3959855784368611e-03  -6.1667825606441724e-05  -4.9081057480179551e-06  3.4836051965690706e-05  1.7853092334447711e-06  -1.3011626121563028e-06  -7.7827550745035513e-05  2.0951868628543290e-05  -7.1070005481174604e-06  -5.3962034919772968e-05  -3.3393639161691475e-09  -6.6308554633000256e-05  -3.4361424147289670e-05  -1.1064640412651182e-06  -7.1065570799031357e-05  -3.1908336025070010e-06  -2.7303536532688372e-09  -8.7239692844987908e-07  5.2269710415364646e-08  -2.4538094765694815e-04  2.1498308060475627e-04  -5.7138575642752886e-12  -6.3704137708775726e-10  -5.9736674372801007e-08  -1.2411686457402352e-08  2.0588634119843711e-04  1.0776874920178461e+00  1.0670818211276072e+00  9.8010967141779515e-01  -2.7727185508325653e-04  -9.9685967753196272e-04  -4.6342208494090849e-06  5.5747344453297513e-06  8.3447527223671686e-02  8.0133341358160484e-02  7.6552360860757717e-03  5.2145933903996987e-02  -1.3878505204754232e-06  6.8287160422108234e-05  1.0017139702488683e-05  2.3622400304679893e-06  6.3128163236793669e-02  8.8891958924031719e-02  3.1168098623525609e-01  1.9164882790952534e-01  -9.2873640760951226e-02  8.7965997515051764e-01  8.4200791411581721e-01  6.8330495934733970e-01  -2.7348254701112080e-03  1.0669187823539438e-03  3.8395229894624639e-05  -3.8314293768062306e-06  3.6556653531498520e-03  2.6646693618237599e-01  6.9138926292527714e-01  5.4444383767414284e-01  8.6486511647314829e-02  4.2768056492217266e-01  5.2950425269784426e-02  -2.4768145274422750e-04  1.8731513383581271e-03  -1.0089085788467443e-02  -1.2297848631505565e-03  2.9223148346861727e-03  2.3355500918748068e-06  3.3741781442509730e-03  9.1625141290508465e-03  -2.7507565922717397e-02  8.9242625442329814e-05  7.0772643318973072e-06  1.8187444680453966e-04  1.5746370785281450e-04  1.6921820035773556e-04  2.1744472723282459e-06  1.2311681382309856e-04  2.1564011471817912e-04  6.0999751550111295e-03  4.5027725538743513e-03  1.4455862590473937e-02  3.9040174304276296e-02  2.3595219616326029e-02  9.3918475120018197e-01  9.5758338570905666e-01  9.0794783767997111e-01  6.2331997847973553e-06  -2.7574698084087915e-05  -8.4513874143083421e-05  -6.6561508730696064e-04  -9.1370954475563484e-06  -1.0334142178428367e-06  -3.3627785332136898e-04  4.4176560289384778e-05  3.7285236831546931e-03  6.7365569244317431e-07  -4.2760390349503544e-04  8.8454627162739864e-03  9.8876548335075482e-06  7.8591828080806180e-08  -2.7234330843726355e-04  3.2356864713795810e-03  -2.1114477673760469e-05  2.5510154422645272e-06  -1.4672231866928199e-05  -6.1213625563704484e-04  6.5381063491681049e-07  7.8218668947222548e-06  2.4624160341948990e-07  8.7694435482882222e-11  2.3044682868743650e-02  1.3257870439460245e-01  1.3099320095577113e-01  1.2370018195465548e-02  -3.7986917976655760e-12  1.4421304024042974e-11  4.5256379646147824e-09  3.3173556348508477e-08  1.4241768819132170e-01  8.1037940639318673e-01  -1.9359851941256882e-02  4.8776133588603748e-01  5.4042775499075473e-08  1.0956312726120730e-11  8.3190121297053060e-08  -2.0618254986920050e-06  2.6915886817220316e-02  5.1012181996362749e-01  -4.1623576381164956e-03  1.0991528732170687e-03  1.0069464199488532e-02  4.7465722449054831e-01  8.1464286134256847e-01  -9.3339283305351461e-03  5.6719115317531901e-03  3.3889436049153221e-01  5.3371732423975071e-01  5.1670878581395352e-01  -4.6254236056427085e-04  4.0878642702697077e-03  8.2628935610424316e-03  8.1612060303154522e-03  7.1786321107203155e-01  7.6119286123626162e-01  1.1154795672127300e-01  3.6059525403328296e-01  -5.5070488098724214e-03  -7.6433682267484431e-03  3.1410472229084330e-02  2.3482941766958924e-02  -7.0546750372303277e-02  -3.6005126147247931e-04  -4.1732522918183475e-02  1.7892270838352212e-01  3.6393787176361341e-07  1.4569590001573306e-05  2.0571722062734196e-05  1.1294465787089216e-08  2.1677407604845552e-07  7.6862947905810665e-11  4.4567213724048116e-10  -1.8696431681160930e-08  1.7771420503782058e-07  -1.4824399416127491e-05  -1.0555626850645170e-06  1.7749878385356784e-10  7.4114055909607651e-09  7.9811652919268495e-08  9.0575471703984192e-07  -1.0463534365152324e-05  1.0000000000000000e+00  1.0000000000000000e+00  1.0000000000000000e+00  1.0000000000000000e+00  1.0000000000000000e+00  1.0000000000000000e+00  1.0000000000000000e+00  1.0000000000000000e+00  1.0000000000000000e+00  1.0000000000000000e+00  1.0000000000000000e+00  1.0000000000000000e+00  1.0000000000000000e+00  1.0000000000000000e+00  1.0000000000000000e+00  1.0000000000000000e+00  1.0000000000000000e+00  1.0000000000000000e+00  1.0000000000000000e+00  1.0000000000000000e+00  1.0000000000000000e+00  1.0000000000000000e+00  1.0000000000000000e+00  1.0000000000000000e+00  1.0000000000000000e+00  1.0000000000000000e+00  1.0000000000000000e+00  1.0000000000000000e+00  1.0000000000000000e+00  9.8014827859917120e-01  9.4132696446656150e-01  9.0049890646743724e-01  8.8017261728771001e-01  9.0279843111291391e-01  9.1392003797154764e-01  9.1099676203111435e-01  8.9847541607369474e-01  8.6888049378884091e-01  8.7927740210514982e-01  8.9966489111326198e-01  1.0031843367594828e+00  9.6887304858302015e-01  9.5883158692090542e-01  9.3603685900463207e-01  8.7851582302474063e-01  7.7094114094578936e-01  5.2587092353818765e-01  4.0567046479962665e-01  3.7514024081292824e-01  3.2129015405042077e-01  4.3240628610019305e-01  3.6928552722428654e-01  3.3090155928260806e-01  3.6814517499726906e-01  3.3774729567315365e-01  2.8015773782492914e-01  2.4122611738102531e-01  2.0044729139795556e-01  1.5997646397908130e-01  1.0522708697547890e-01  6.7748374005452860e-02  4.1245857558332620e-02  2.6459942328453920e-02  1.4032467888591520e-02  -1.3964364409321656e-04  -1.8452084708842343e-02  -3.8452077821907606e-02  -5.0118049543113857e-02  -5.9077367906842218e-02  -5.4601598639077431e-02  -5.0946250232186165e-02  -5.5436781482221371e-02  -6.0418964533419467e-02  -9.6218135888572379e-02  -8.4741628154401602e-02  -6.3457631594534686e-02  -4.6911358237688348e-02  -1.6244125687643197e-02  -1.2057119914365078e-02  -1.7943742080692167e-02  -3.8680411539842798e-03  -1.3847461734622944e-02  -2.7449392292677739e-02  -1.7980411230033674e-02  -2.0608986254332998e-02  -1.7735676012542004e-02  -5.8834117292163885e-03  2.2245184751177951e-02  3.0659484612487096e-02  3.7726618073179619e-02  4.0266663903507791e-02  2.6860319951949964e-02  1.1996120028244699e-02  -7.1271347442538116e-04  -3.5152556406198997e-03  -2.3418873213106144e-03  1.9679045874369280e-03  1.5180454688006062e-03  8.0353879413530040e-04  1.5401228094102289e-04  -2.7786850698283624e-05  -3.4672360396748654e-06  -1.9498106707730818e-06  1.1790006829396020e-06  4.8878165394449278e-06  1.2834981306378644e-05  2.0187406994881324e-05  1.7220659640940230e-04  -1.4044114512982999e-04  -1.1683676129984155e-03  -1.1396136738705395e-03  -1.2909870174631444e-03  -9.3626885553955606e-04  -5.3696114561703056e-04  -3.6491471840901341e-04  -1.9815415183722332e-04  -1.0371437298748857e-04  -3.6167126087092782e-04  -2.0509482554666088e-04  -1.2995076717101087e-04  -1.3080388720655177e-04  -9.3758277419571303e-05  -5.2629008802742329e-05  -2.3846232105262837e-05  9.2363797306509517e-06  4.4202082599653762e-05  3.8568633360130293e-05  2.7322394919828160e-05  1.6320185060544145e-05  3.6645121821208023e-06  -3.4146587761962136e-06  -2.9140735510574348e-06  -4.7907581894343625e-07  1.8153781577459393e-08  -8.9017350558133625e-09  -5.9843723424467487e-09  -9.2249386647005570e-10  -2.5204684222229269e-10  -4.9187976389066005e-11  -1.4100907612625985e-12  6.5101426754076172e-13  1.0518268777358190e-13  1.6221632600839793e-13  -6.5426367975894925e-14  -2.6203580817512686e-15  3.3591735174408086e-14  2.8459155991557878e-13  1.5560471831189183e-12  3.6380958601961288e-12  -1.2382556225367419e-12  8.3548105420569894e-13  2.1924197275142558e-12  -1.9158853952172546e-12  -1.2230635985595689e-12  -1.0578181592718020e-12  -2.8697925878862169e-12  -6.2074895975681322e-12  -1.8480308694603181e-11  -3.9926793505722880e-11  -1.7374444208064032e-11  -2.7030680925700164e-11  -1.2183783600466949e-10  -1.9270094738491074e-10  -1.8607288761906820e-10  -1.4465859838129973e-10  8.6921695061342071e-11  -1.0164982149147709e-11  -4.7548900909151140e-11  6.5829473040846235e-12  5.4444675951008709e-12  -5.8010748462575043e-13  2.3113348415787543e-13  2.4803691592379058e-13  -2.4226655431071369e-13  -5.4990987162554603e-14  2.8635920199690635e-14  6.3330366673893886e-14  1.9934956584969950e-13  -1.2867430961977555e-12  4.2672997618700124e-12  -1.8113294622428248e-11  8.4605334343746278e-11  -4.0440529270450781e-10  2.7528753074845170e-09  -3.2764237377757061e-08  -1.4835483219121484e-07  3.5115089821237990e-07  -1.5150080291785619e-06  -3.2600997963761441e-06  4.0807769316724106e-06  1.7815141470955699e-05  3.2082494580744213e-05  3.6349482746615218e-05  2.9688427625667980e-05  1.1483860646378758e-05  2.0495210913027406e-06  -3.7091496639619849e-07  1.3534910748430699e-07  3.5444779275118124e-08  3.3822888764661351e-08  -2.3119318186120425e-07  2.0408003883269180e-06  8.7488610747251045e-06  1.5993882065414840e-05  1.7291887899362135e-05  1.0613275621486688e-05  8.9478693395015341e-07  9.7978006978158760e-01  8.3183688952098112e-01  3.4090736863209059e-01  2.7696023570195776e-02  -8.1638832164621384e-03  -1.7435410137934062e-02  -1.1087047706946969e-02  9.1158415238430917e-04  -3.8900791778514001e-04  2.3348051603099413e-04  1.3985451077893542e-04  -1.5555642841126336e-04  -1.2190689916404515e-04  -1.1867015239434993e-04  1.5811412959008235e-05  4.1863468448238226e-04  1.5792412413252869e-03  2.2177099950794689e-03  5.2080981843411729e-03  -6.6709592603336572e-03  -4.1272129070307868e-02  -5.9250051520325038e-02  -6.7884944123820762e-02  -1.0333647285447473e-01  -1.5589986553421639e-01  -1.3267927560711534e-01  -1.3769498299620334e-01  -7.5660147909381539e-02  -2.8222005000126765e-02  -1.7685124119525070e-02  3.2451756112860296e-02  -3.3785058009903291e-03  -2.9554248911420236e-02  -2.3600681200233873e-02  -1.6568155649569035e-02  -1.5781636283184467e-02  -2.8185736594368595e-02  -4.2315587241841542e-02  -2.9188682699848922e-02  1.6216581958579158e-02  2.5960771146609937e-02  2.4515014148255816e-02  2.2832124585939848e-02  2.0475302226168467e-02  1.2010456951941417e-02  2.5003882311937778e-03  -1.0321661004375319e-02  -1.6655336804754534e-02  -1.5427933089008364e-02  -1.1932795032827546e-02  -1.1165987283957287e-02  -9.4819605153023123e-03  -2.8728567252265589e-03  3.6902704557506224e-03  1.7492439050960831e-02  1.6094438668210132e-02  1.3901584426953576e-02  9.2554703442176232e-03  4.0225716507859520e-03  7.3671157069373362e-04  -6.2273502001792831e-04  -1.4341368979507983e-03  -2.0809750111603549e-03  -2.0515775990987326e-03  -1.9063349076937600e-03  -1.6110980843785385e-03  -1.3109965061962861e-03  -8.4040929237295709e-04  -1.8601430253806320e-04  3.0064699935597090e-05  -4.7651804224334082e-05  -3.7008291291719788e-04  -5.2363093590859029e-04  -8.5700400248329674e-04  -7.2997210504503469e-04  -2.0897459092716620e-04  -2.5910599841047456e-04  -1.2379336572279130e-04  -1.3271383700728985e-04  -2.2490375323265657e-04  -2.1946418015287113e-04  -6.4211192242374471e-05  -3.1660285300844668e-05  -1.0136818584087259e-05  3.3360661507435606e-05  3.1724728427146574e-05  2.4568805103615499e-05  1.3988006134308184e-05  2.3878821016084731e-06  -2.6266224648551426e-06  -1.3455804666804359e-06  -5.1731256721896454e-07  -1.5925489885677979e-07  -1.1166980061924287e-07  -3.8625375611929126e-08  -1.0978141147807053e-08  -7.7786454687734414e-09  -1.4653379500545976e-09  -1.5174196324945603e-09  -6.2370951769735318e-10  -1.7165878693221548e-10  2.2521046655021686e-11  1.6359485365039133e-11  -2.2452578108424291e-11  5.5535048850942911e-12  3.5918028321988872e-12  4.0125026532032145e-12  -3.4286824418265183e-11  -1.7879479229835035e-11  4.2399274223376768e-11  4.1410821819573753e-10  -9.6164173220478153e-10  3.0969879003632074e-09  6.0861593415688576e-09  3.2678831867350607e-09  1.4786643470328389e-09  1.3531303644120714e-09  5.3878554698597614e-10  -2.0561706984220179e-09  -1.3309803107491982e-09  -3.0451544358390639e-11  -2.1335118216181601e-10  -1.6583973534865046e-09  -3.1229868704184274e-09  -4.1559161365145992e-09  -1.5888023922667961e-09  1.3264344602755789e-09  9.2782555725528606e-10  1.0900888788520250e-09  6.3773278148970917e-10  2.3549717685678791e-09  6.6587926523146246e-09  4.2189088695980200e-09  3.0615137217280723e-09  1.5933621153233114e-09  -2.2892917973552494e-09  -1.9369312785770762e-09  -6.5031627164149502e-09  -3.7780334860389623e-08  -1.7062223270089118e-07  -1.3050448343092452e-06  -1.5833298170500635e-06  -6.8875115846739047e-06  -4.9215696642113327e-06  -3.7192533907941889e-06  -2.8479327919218517e-06  -1.9757181385569160e-06  -1.3016866022038688e-06  -8.1317880692319210e-07  2.3091460370371024e-04  2.0008197780774833e-04  -3.7809317088547444e-03  2.3784868329047314e-04  5.5900638714521077e-03  4.7408558389257010e-03  6.3548057681988542e-03  1.3207864117511209e-02  1.1917967223047332e-02  1.0578719347544625e-02  7.9943965217398414e-03  4.9162660043044022e-03  1.9520834525231020e-03  1.4027610310695438e-03  8.1256006582759472e-04  1.1630270144701295e-04  3.9071778843064944e-04  1.3390017740216506e-04  -4.7275149856462604e-04  -1.9915475457177664e-04  6.5074853011704850e-04  2.1413594566164445e-03  3.0744055423092701e-03  3.2439740809971610e-03  1.8811014640114250e-03  8.4693053978996909e-04  7.4402398178225292e-05  -2.4069511559635359e-04  -2.1980597106163565e-05  1.7444420048928297e-04  1.3653951127119038e-05  -9.8338103760672781e-04  4.3487728274696130e-01  7.1193306502151033e-01  8.0614610346861260e-01  8.3316407639531109e-01  8.6266938789758540e-01  8.9191941363476057e-01  9.2378893369422210e-01  9.3932739614765604e-01  9.6505631450053209e-01  9.3497207782232128e-01  8.9036261810517325e-01  7.8343556665278746e-01  5.9130169906090269e-01  6.5086906649200749e-01  6.4772937394404106e-01  5.8890811922815944e-01  1.1357723388556866e-09  2.6892740153453183e-10  7.4087964702243305e-11  3.4345016759584326e-11  7.1121978798280536e-12  1.8276202104390577e-12  8.0460023931277536e-13  -2.9099829967399017e-12  1.9063753083655943e-11  -4.2100656751237489e-11  -4.1467191312693194e-10  2.7415044821108034e-09  1.2291533409045645e-07  4.1546436381345538e-07  1.5611458839501184e-07  8.3765520494927124e-08  9.8209825722498167e-01  9.2001013020608580e-01  9.5295228644721330e-01  9.6920075447255427e-01  9.6029549196032615e-01  9.8717038695113568e-01  1.0086061627482312e+00  1.0069093410667642e+00  1.0073431318744954e+00  1.0061955489240566e+00  1.0022437868967387e+00  1.0010939147689402e+00  9.8791053301797471e-01  9.8131156834966504e-01  9.9109450214258921e-01  9.9667532101870848e-01  -5.2134857597259119e-07  -2.0631382488204302e-07  -8.8038155310458900e-08  -1.8006856549011797e-07  -8.4428767317357820e-07  -1.0483952962169737e-06  -1.1577955852503433e-06  4.2303387976155444e-07  -4.4744483993487656e-06  -3.6974484168610317e-06  1.3324729636571907e-06  4.4579435305347559e-06  -3.5774093618554167e-06  -3.6588070079948734e-06  -3.1811833776397592e-06  -3.2817022037806377e-06  -5.6210426565525677e-06  -2.9893597594030394e-06  8.5882746031359033e-08  3.7238040852625939e-06  5.3805410647757427e-06  1.1916085927438546e-05  2.3222358921683860e-05  3.5661366923528985e-05  3.9900476580503754e-05  3.4282829898437238e-05  2.4555923147450919e-05  2.0111342949439485e-05  1.8973405538808595e-05  1.0083277832313193e-05  1.0252104744954658e-06  -2.7618055122179088e-07  -8.0996768496731361e-06  4.6343450705602112e-04  1.0731034076651180e-03  3.3711837734058739e-03  1.1715154439992579e-02  1.4769137047606792e-02  1.7629058026254505e-02  1.4996462529311355e-02  1.2804926860496965e-02  1.1362460583930593e-02  8.5805017156219930e-03  4.5424034185890120e-03  -1.5992516129263384e-04  -5.0608859701736233e-04  -9.8081277497484354e-05  -8.8570553378486318e-05  1.1076458339585422e-04  -3.1492208534614801e-06  4.4499819709514505e-04  1.4461125477507877e-03  5.3417660472964744e-03  8.0000851218707796e-03  2.3224668809813569e-03  1.1154659170505486e-02  1.2309026011587620e-02  4.9759963194279215e-03  1.0718104216226505e-02  1.9845077150384669e-02  1.8234899717378232e-02  1.3986383762915980e-02  -1.9469222816668688e-04  1.4383000032013237e-03  -6.6863355160936444e-08  -3.7878375265251190e-07  -1.1285445148338583e-05  -1.9988164865404968e-05  7.7563531067240398e-05  1.0100930257758263e-04  9.3386092200538576e-05  2.6115857999040383e-05  -2.8738300269676204e-05  8.7389081079081355e-05  5.2769845596986437e-05  6.6195790993014251e-05  3.9599027143992381e-05  2.2671544101853823e-05  7.5573437802631312e-06  -6.8743804042350197e-07  -1.7317743232297196e-04  -1.9721831365923927e-04  -2.2389861670324765e-04  -2.8933919780032294e-04  -8.8200478631037083e-05  3.8477186744848173e-05  2.6229637951258859e-05  1.9672772806452614e-05  2.3888597037028448e-06  1.2536888046451141e-06  3.3133920220923457e-07  2.6044295579855707e-08  1.1189196551822933e-07  3.2717448496121145e-08  -3.7943347744169525e-07  -2.8672046428007841e-06  3.5438259491079849e-03  -3.0712794133707436e-02  -1.6215480960001158e-01  2.4541923460257339e-01  4.7328644094893491e-01  5.7293502553737619e-01  6.9143290566287197e-01  7.7440326058230546e-01  8.8955529358638086