<?xml version="1.0"?>
<VTKFile type="UnstructuredGrid"  version="0.1"  >
<UnstructuredGrid>
<Piece  NumberOfPoints="4448" NumberOfCells="7310">
<Points>
<DataArray  type="Float64"  NumberOfComponents="3"  format="ascii">0 0 0  0 1 0  5 1 0  5 0 0  2.685965962967975 0.6199970297988864 0  2.585965962967975 0.7199970297988864 0  2.485965962967974 0.6199970297988864 0  2.585965962967975 0.5199970297988864 0  2.887457126027364 0.718961842035438 0  2.787457126027364 0.818961842035438 0  2.687457126027364 0.718961842035438 0  2.787457126027364 0.618961842035438 0  0.8769895867556056 0.290401976457433 0  0.7769895867556056 0.390401976457433 0  0.6769895867556056 0.290401976457433 0  0.7769895867556056 0.190401976457433 0  4.376177735165038 0.8808430758872411 0  4.276177735165039 0.9808430758872411 0  4.176177735165039 0.8808430758872411 0  4.276177735165039 0.7808430758872411 0  0.6141057752375989 0.3768652333524785 0  0.5141057752375989 0.4768652333524784 0  0.4141057752375989 0.3768652333524785 0  0.5141057752375989 0.2768652333524785 0  4.630582754177703 0.6406480284476114 0  4.530582754177703 0.7406480284476114 0  4.430582754177704 0.6406480284476114 0  4.530582754177703 0.5406480284476114 0  4.896214045309746 0.4187630456168357 0  4.796214045309746 0.5187630456168357 0  4.696214045309747 0.4187630456168357 0  4.796214045309746 0.3187630456168358 0  2.155589080094151 0.2204087294390689 0  2.055589080094151 0.320408729439069 0  1.955589080094151 0.2204087294390689 0  2.055589080094151 0.1204087294390689 0  2.404826935341426 0.8737119164346264 0  2.304826935341426 0.9737119164346264 0  2.204826935341426 0.8737119164346264 0  2.304826935341426 0.7737119164346264 0  2.964213492896404 0.1174061699058604 0  2.864213492896404 0.2174061699058604 0  2.764213492896404 0.1174061699058604 0  2.864213492896404 0.01740616990586039 0  3.582837128300153 0.298032837113745 0  3.482837128300153 0.3980328371137449 0  3.382837128300153 0.298032837113745 0  3.482837128300153 0.1980328371137449 0  0.8088212649691964 0.7502337282029031 0  0.7088212649691964 0.8502337282029031 0  0.6088212649691964 0.7502337282029031 0  0.7088212649691964 0.6502337282029031 0  4.223801910336278 0.5002442229252277 0  4.123801910336279 0.6002442229252277 0  4.023801910336279 0.5002442229252277 0  4.123801910336279 0.4002442229252278 0  4.922353386628925 0.2017240624096503 0  4.822353386628925 0.3017240624096503 0  4.722353386628925 0.2017240624096503 0  4.822353386628925 0.1017240624096503 0  2.206072007496676 0.5374870999379825 0  2.106072007496676 0.6374870999379825 0  2.006072007496676 0.5374870999379825 0  2.106072007496676 0.4374870999379825 0  4.32315537674505 0.6819384234094167 0  4.22315537674505 0.7819384234094167 0  4.123155376745051 0.6819384234094167 0  4.22315537674505 0.5819384234094167 0  3.715487240450959 0.1001729247534523 0  3.615487240450959 0.2001729247534523 0  3.515487240450959 0.1001729247534523 0  3.615487240450959 0.0001729247534522776 0  1.763896808309352 0.814597031442381 0  1.663896808309352 0.914597031442381 0  1.563896808309352 0.814597031442381 0  1.663896808309352 0.7145970314423811 0  2.134954894404413 0.8503736436135857 0  2.034954894404413 0.9503736436135857 0  1.934954894404413 0.8503736436135857 0  2.034954894404413 0.7503736436135857 0  4.032081200799731 0.8883073324077129 0  3.932081200799732 0.9883073324077128 0  3.832081200799732 0.8883073324077129 0  3.932081200799732 0.7883073324077129 0  1.720272337623273 0.315263346238785 0  1.620272337623273 0.415263346238785 0  1.520272337623273 0.315263346238785 0  1.620272337623273 0.215263346238785 0  2.849341852368551 0.3377485432764519 0  2.749341852368551 0.4377485432764519 0  2.649341852368551 0.3377485432764519 0  2.749341852368551 0.2377485432764519 0  0.353954769751299 0.3076959497508149 0  0.253954769751299 0.4076959497508149 0  0.153954769751299 0.3076959497508149 0  0.253954769751299 0.2076959497508149 0  4.220679522741156 0.1330663414655305 0  4.120679522741156 0.2330663414655305 0  4.020679522741156 0.1330663414655305 0  4.120679522741156 0.03306634146553053 0  4.03846295264503 0.2615603127259356 0  3.93846295264503 0.3615603127259356 0  3.83846295264503 0.2615603127259356 0  3.93846295264503 0.1615603127259356 0  1.258185597494404 0.7951208458533302 0  1.158185597494404 0.8951208458533302 0  1.058185597494404 0.7951208458533302 0  1.158185597494404 0.6951208458533302 0  2.66756980469976 0.2103205042379263 0  2.567569804699759 0.3103205042379263 0  2.467569804699759 0.2103205042379263 0  2.567569804699759 0.1103205042379263 0  3.066183082511723 0.4648897272298002 0  2.966183082511723 0.5648897272298001 0  2.866183082511723 0.4648897272298002 0  2.966183082511723 0.3648897272298002 0  3.876160132013113 0.5302140905286264 0  3.776160132013113 0.6302140905286264 0  3.676160132013113 0.5302140905286264 0  3.776160132013113 0.4302140905286265 0  4.435786682356577 0.1191533144960393 0  4.335786682356577 0.2191533144960393 0  4.235786682356578 0.1191533144960393 0  4.335786682356577 0.01915331449603927 0  3.657464697025493 0.6000278738124513 0  3.557464697025493 0.7000278738124512 0  3.457464697025493 0.6000278738124513 0  3.557464697025493 0.5000278738124513 0  3.695085226088024 0.8183916024406818 0  3.595085226088024 0.9183916024406817 0  3.495085226088024 0.8183916024406818 0  3.595085226088024 0.7183916024406818 0  0.6716618480696921 0.5839650746876788 0  0.5716618480696921 0.6839650746876788 0  0.4716618480696921 0.5839650746876788 0  0.5716618480696921 0.4839650746876788 0  3.384667051383998 0.4223896768935983 0  3.284667051383998 0.5223896768935983 0  3.184667051383998 0.4223896768935983 0  3.284667051383998 0.3223896768935983 0  1.283504513865784 0.1674438639117045 0  1.183504513865784 0.2674438639117045 0  1.083504513865784 0.1674438639117045 0  1.183504513865784 0.06744386391170451 0  3.360557185844586 0.8746680565940553 0  3.260557185844585 0.9746680565940553 0  3.160557185844585 0.8746680565940553 0  3.260557185844585 0.7746680565940554 0  1.540529467032703 0.1794710788309493 0  1.440529467032703 0.2794710788309492 0  1.340529467032703 0.1794710788309493 0  1.440529467032703 0.07947107883094925 0  0.328482578588082 0.861302184907903 0  0.228482578588082 0.961302184907903 0  0.128482578588082 0.861302184907903 0  0.228482578588082 0.761302184907903 0  2.433715755666527 0.5671313263739527 0  2.333715755666527 0.6671313263739527 0  2.233715755666527 0.5671313263739527 0  2.333715755666527 0.4671313263739527 0  1.230126416042657 0.4719216314495289 0  1.130126416042657 0.5719216314495289 0  1.030126416042657 0.4719216314495289 0  1.130126416042657 0.3719216314495289 0  0.6116895212263961 0.1109717124183122 0  0.5116895212263961 0.2109717124183123 0  0.4116895212263961 0.1109717124183122 0  0.5116895212263961 0.01097171241831223 0  1.826399793314543 0.5107585635357751 0  1.726399793314543 0.6107585635357751 0  1.626399793314543 0.5107585635357751 0  1.726399793314543 0.4107585635357751 0  1.55211198904505 0.4715062703352436 0  1.45211198904505 0.5715062703352436 0  1.35211198904505 0.4715062703352436 0  1.45211198904505 0.3715062703352436 0  4.634586060050256 0.3908052747188366 0  4.534586060050256 0.4908052747188366 0  4.434586060050257 0.3908052747188366 0  4.534586060050256 0.2908052747188367 0  4.402298611127895 0.3855442737855176 0  4.302298611127895 0.4855442737855176 0  4.202298611127896 0.3855442737855176 0  4.302298611127895 0.2855442737855176 0  1.952879969939083 0.1350676669858752 0  1.852879969939083 0.2350676669858752 0  1.752879969939083 0.1350676669858752 0  1.852879969939083 0.03506766698587516 0  0.2569000568572125 0.624378330560713 0  0.1569000568572125 0.724378330560713 0  0.05690005685721253 0.624378330560713 0  0.1569000568572125 0.524378330560713 0  3.161687137399175 0.8244152317893645 0  3.061687137399175 0.9244152317893645 0  2.961687137399175 0.8244152317893645 0  3.061687137399175 0.7244152317893645 0  2.395032016636657 0.3643063846039553 0  2.295032016636657 0.4643063846039552 0  2.195032016636657 0.3643063846039553 0  2.295032016636657 0.2643063846039553 0  2.617463499593836 0.8856904558897764 0  2.517463499593836 0.9856904558897763 0  2.417463499593836 0.8856904558897764 0  2.517463499593836 0.7856904558897764 0  3.421102286656348 0.6813514212092414 0  3.321102286656348 0.7813514212092414 0  3.221102286656348 0.6813514212092414 0  3.321102286656348 0.5813514212092414 0  2.449787661472024 0.1680638375564639 0  2.349787661472024 0.2680638375564639 0  2.249787661472024 0.1680638375564639 0  2.349787661472024 0.06806383755646392 0  3.355617450537308 0.1968805330923727 0  3.255617450537307 0.2968805330923727 0  3.155617450537307 0.1968805330923727 0  3.255617450537307 0.09688053309237274 0  1.503825997254619 0.6923599081039139 0  1.403825997254619 0.7923599081039139 0  1.303825997254619 0.6923599081039139 0  1.403825997254619 0.5923599081039139 0  4.810628718351659 0.8986629234755887 0  4.710628718351659 0.9986629234755887 0  4.610628718351659 0.8986629234755887 0  4.710628718351659 0.7986629234755888 0  0.5404316710680832 0.8720628158042852 0  0.4404316710680832 0.9720628158042852 0  0.3404316710680833 0.8720628158042852 0  0.4404316710680832 0.7720628158042853 0  4.973460784063308 0.7469193359422902 0  4.873460784063308 0.8469193359422902 0  4.773460784063309 0.7469193359422902 0  4.873460784063308 0.6469193359422902 0  1.004252616630607 0.8231219524210824 0  0.9042526166306074 0.9231219524210824 0  0.8042526166306074 0.8231219524210824 0  0.9042526166306074 0.7231219524210825 0  0.28081752570913 0.1080256308500591 0  0.18081752570913 0.2080256308500591 0  0.08081752570912998 0.1080256308500591 0  0.18081752570913 0.008025630850059071 0  1.069684414289768 0.1432175458177037 0  0.9696844142897676 0.2432175458177037 0  0.8696844142897676 0.1432175458177037 0  0.9696844142897676 0.04321754581770368 0  2.027723889848873 0.4050114807802901 0  1.927723889848873 0.5050114807802901 0  1.827723889848873 0.4050114807802901 0  1.927723889848873 0.3
[...]
<PointData  Scalars="f_19"> 
<DataArray  type="Float64"  Name="f_19"  format="ascii">1.0000000000000000e+00  1.0000000000000000e+00  -1.2919058264086994e-08  -1.3895557267549277e-02  6.2240313414174642e-01  7.7920780607343310e-01  8.2874983788951417e-01  7.3429626266627612e-01  6.2772406158550609e-01  7.0024692945963007e-01  7.3218593248103603e-01  3.4416307990128675e-01  1.0146649580029476e+00  1.0051604983259828e+00  1.0029904049774629e+00  1.0118344865651268e+00  -7.0020224158530509e-03  5.6204838860292447e-04  -9.7637265332815078e-04  -1.3092457019624614e-03  9.9701668037522639e-01  9.9945431895733161e-01  9.9946914034977097e-01  9.9996692463044135e-01  2.2491669240546214e-02  9.0450624549480954e-02  2.0350203794504071e-01  2.6633430524823526e-01  3.4537038305313835e-03  1.7060844460519503e-01  2.3302553990109603e-01  2.1378276801748072e-01  6.3281622825714923e-01  9.5233639502865730e-01  9.6732906805695595e-01  8.6449445581267981e-01  1.8471862081682647e-01  7.2282332189190679e-01  8.3868288536882307e-01  8.3118463501784079e-01  1.7242304719641105e-01  4.2153764164824353e-01  4.0309805544681082e-01  3.9184712054910886e-01  -9.2131647987429462e-03  6.2003233495254939e-02  2.4318225947303410e-01  1.1924182270073976e-01  8.1124721481809658e-01  1.0256735848092799e+00  1.0246039768887045e+00  9.1445003257120228e-01  3.2519643214191252e-01  7.6372483557419449e-02  2.7636099055888830e-01  3.6521758807731847e-01  4.8252413798170277e-03  1.9460087922620711e-01  2.7561865661252211e-01  2.1889737054234154e-01  3.1545975963784989e-01  8.0432924787161497e-01  9.2019393058565369e-01  6.0343051577208838e-02  -5.8127650531279692e-03  -7.1403198922148904e-06  2.1318875692734013e-03  -1.6537327913550191e-02  -7.5366465145761650e-04  -1.9249603073469755e-02  1.0287953729038901e-04  -2.0091287695608201e-06  8.0564762664391765e-01  8.5813254913814441e-01  8.8570490862702511e-01  8.3502160671914760e-01  9.3570545340118982e-01  9.2759102608350374e-01  9.2645405184715524e-01  8.5080041222494196e-01  -2.3017480161006670e-03  2.1035506513566626e-06  1.3223118616460609e-05  1.8361870413663821e-02  9.9831974381207933e-01  1.0843605279417290e+00  1.0190821740528768e+00  1.0198391795525070e+00  2.5531264112771590e-01  -3.6237985803010776e-02  2.1616417936429286e-01  4.2694473072248823e-01  9.9933193734751635e-01  9.9930653466786790e-01  9.9847508713560384e-01  9.9697496449859913e-01  5.1205259191636505e-03  -6.8311054713891081e-02  -9.9915790548269151e-04  -1.2286671791773794e-04  -9.0338674306138067e-02  -7.4712984907469873e-02  -2.3977585965157869e-02  -4.3383817791475187e-03  9.0850750899877808e-01  7.1334411771107198e-01  1.0322290854027432e+00  9.0750358159060485e-01  2.0067656268206069e-01  1.6585725779715784e-02  3.5843770886220355e-01  4.5528817675482386e-01  2.9411580922458366e-02  -1.1713283455756428e-01  2.5830123584280936e-02  2.2908906977928911e-01  7.8977481279009401e-02  1.4962807686219656e-03  -6.0476738957197025e-02  2.2283960770811778e-01  -1.2043125095458174e-02  -9.9770863573862625e-02  -6.6985126288387088e-03  -3.2760571565032972e-05  1.6238167837838158e-03  2.5863089736332792e-02  -1.4944566561591460e-01  3.0806152192253283e-01  2.9727891953806722e-07  -2.2186378452480411e-03  -1.1039068983499170e-02  1.4374845709881793e-02  1.0897398999688175e+00  1.0255180579499485e+00  1.0070581203308286e+00  1.0004916918425451e+00  6.1903760137428120e-02  2.4549454426143944e-03  8.6525035405234943e-02  2.8875511522843478e-01  9.6595864311944712e-01  9.5581426042232820e-01  9.2070329662985650e-01  8.3081040049903865e-01  1.3239683656884199e-01  4.4704618464377677e-01  -4.0740704588170883e-02  -3.6970024224597891e-04  9.9794876732017579e-01  1.0032623331739630e+00  1.0099725510740192e+00  1.0237703718810749e+00  6.7843618124044158e-01  9.9750773763057421e-01  9.9515270748916562e-01  9.9881968250229636e-01  3.5018291244173599e-01  2.8876527599202367e-01  2.9387430840255818e-01  1.4086906370153451e-01  4.8512270494122250e-01  1.0163204744478112e+00  1.0109301289307469e+00  1.0154851593517742e+00  8.6768871318517282e-01  9.4474318468396923e-01  -1.2172031708283082e-01  1.9177859622886121e-03  8.2080371488327675e-01  8.7739317152959809e-02  5.6750230495368792e-01  8.5202204011811489e-01  7.5384743944832533e-01  2.8907709093089212e-01  4.0189978425776141e-01  8.3060714801768887e-01  4.6638330142379791e-01  3.0092546139179183e-01  5.0248101893941799e-01  5.1956368658108443e-01  5.5992223240582895e-01  2.6051210728774576e-01  4.9162857593769882e-01  5.7766532558676942e-01  8.7204928362183609e-01  8.6174835451945808e-01  8.9433650713070700e-01  1.0071073940947690e+00  9.6486686995904258e-01  1.0015222742673235e+00  9.9962928929646511e-01  9.9963293311994927e-01  5.0040461011275541e-03  4.9478262012893376e-01  6.5504419838721684e-01  6.1543677986761314e-01  -6.0308826521988761e-03  1.8278999481783767e-01  6.3140717761713527e-01  1.3673740936701803e-02  6.5604078566860324e-01  2.0702725006337896e-01  1.9680961746930870e-01  6.1172108270816661e-01  7.8949936841246002e-03  -1.2950679433288892e-03  6.9425662748184333e-02  9.5695587482862232e-01  2.5211292237187855e-01  3.1334463485267589e-03  1.7367717452121365e-01  3.4663752634259404e-01  1.8043755232314340e-01  3.1896262433277223e-01  1.2020488399308213e-01  -1.3718299025230427e-04  1.0279823423250991e+00  1.0543640902032598e+00  1.0318945203162941e+00  1.1596353992167774e+00  1.2004741101436436e-04  -8.2119045193624389e-07  -3.8780708633646429e-04  -1.2544279439189756e-02  1.0027999287557525e+00  9.5965387504278143e-01  5.7212971062157858e-01  1.0168294901551373e+00  -1.3105492336492283e-03  1.3972574832938849e-04  -1.2047402429369396e-02  -5.4811819404211523e-02  3.4191549626623463e-01  1.0139722331734220e+00  9.9470412109043438e-01  -7.7026106320281673e-02  -8.6933644459340736e-02  9.9520660626745672e-01  9.9923333988908802e-01  9.7023857379802958e-01  8.6100042577918712e-01  9.8288823439118767e-01  9.8304518496522231e-01  1.0370641707647870e+00  7.5549112852492672e-01  1.1056899522658681e+00  1.0097343993996224e+00  9.8274343007121601e-01  9.7707719991497166e-01  9.8717959631268493e-01  9.9283937581119186e-01  9.1293815017390723e-01  9.0401823479135346e-01  1.0496006167537755e+00  1.0154494427734166e+00  9.9192683064015552e-01  7.2576892321996278e-01  -8.1214064620933640e-02  4.9542724363949814e-01  8.2458874224126433e-01  1.2574477724369504e-01  3.3510291070353559e-01  3.4975372711828806e-01  1.5468856741015120e-02  2.2675902902276310e-02  1.5995350493626176e-05  -1.1264589579669656e-04  -3.2678243739235587e-03  -2.0664156928041331e-02  -4.5855952760489420e-02  -5.2896693190550336e-03  -2.2061007261597439e-04  3.8267790548085459e-03  6.2546178007457223e-02  1.5733890906860823e-01  5.3720557430342007e-02  1.0000000000000000e+00  1.0000000000000000e+00  1.0000000000000000e+00  1.0000000000000000e+00  1.0000000000000000e+00  1.0000000000000000e+00  1.0000000000000000e+00  1.0000000000000000e+00  1.0000000000000000e+00  1.0000000000000000e+00  1.0000000000000000e+00  1.0000000000000000e+00  1.0000000000000000e+00  1.0000000000000000e+00  1.0000000000000000e+00  1.0000000000000000e+00  1.0000000000000000e+00  1.0000000000000000e+00  1.0000000000000000e+00  1.0000000000000000e+00  1.0000000000000000e+00  1.0000000000000000e+00  1.0000000000000000e+00  1.0000000000000000e+00  1.0000000000000000e+00  1.0000000000000000e+00  1.0000000000000000e+00  1.0000000000000000e+00  1.0000000000000000e+00  9.9997113056188025e-01  9.9991476996675466e-01  9.9983796203791553e-01  9.9965129573531608e-01  9.9934326361396730e-01  9.9877673438452430e-01  9.9776472079002909e-01  9.9612542460030584e-01  9.9471771280725219e-01  9.9344543076301206e-01  1.0030997478728263e+00  1.0321499615887202e+00  1.0218372070553685e+00  1.0213474455473814e+00  1.0249399533205865e+00  1.0271440468557695e+00  1.0321383164202356e+00  1.0362776570500589e+00  1.0360582320396183e+00  1.0331154545981094e+00  1.0302977367509008e+00  1.0221504916733963e+00  1.0205170217881461e+00  1.0173455815930397e+00  1.0093975892994609e+00  1.0072446937884239e+00  1.0007624924387857e+00  9.9862823630411224e-01  9.9897354428859564e-01  9.9856463693689068e-01  1.0005278803527384e+00  1.0040997470116946e+00  9.9840133128782560e-01  9.9526225817351144e-01  9.9301374916367835e-01  9.8873277518525993e-01  9.8513373663294113e-01  9.7717206145079805e-01  9.6685641979753678e-01  9.5179266140362639e-01  9.2500037830051773e-01  8.9333721572355174e-01  8.5655164383463189e-01  8.2870402103533702e-01  8.0960915066442751e-01  7.9970772537138723e-01  8.1379569970476151e-01  8.2216076473510857e-01  8.7799833028158702e-01  8.7823324502150502e-01  8.7210552739068103e-01  8.7083261096800679e-01  8.5173734968579906e-01  8.3011094372013861e-01  8.0589521395265373e-01  7.8556756887096413e-01  7.9119590426140129e-01  8.0671270517301474e-01  8.6059191398659762e-01  8.6841722838137392e-01  8.7515095677608334e-01  8.7736643547521664e-01  8.6379390679242429e-01  8.4443760965452841e-01  8.1137379392720643e-01  7.4028108797659686e-01  6.4457232552645494e-01  6.4240331403146700e-01  6.1721416074972291e-01  5.7651153112288778e-01  5.0211128450490883e-01  3.7891446097789910e-01  2.9811607405836887e-01  2.3515985174717632e-01  2.0497498139001644e-01  1.7614893464962320e-01  1.3016968256876252e-01  6.0505776781504123e-02  -7.5769632437222442e-02  -2.1938755516558747e-01  -1.8585848004631425e-01  -1.3294022663927704e-01  -9.8299280932486147e-02  -9.5453840749620017e-02  -9.4787306230806626e-02  -9.7926295413267195e-02  -1.2521285260734108e-01  -1.0521180061906936e-01  -7.5825900461902296e-02  -5.4703592702443994e-02  -3.2937893109668291e-02  -1.3770895284003314e-02  5.8178579864190429e-03  3.2953551490291041e-02  4.7380925879000273e-02  1.2460626398768393e-01  2.3506943487299919e-01  2.4158874658232568e-01  2.0688817650165925e-01  1.9052144139665428e-01  1.4696994410689782e-01  8.7313735887778701e-02  2.2516154605033846e-02  -2.1675863020613542e-02  -2.1823021205539965e-02  -1.3400902725978797e-02  -1.1827499347913837e-02  -7.2597480660765833e-03  -4.0145381662337904e-03  -2.1510524728252365e-03  -7.9458849427043701e-04  -6.4696110762687066e-06  1.7083867125290644e-05  -3.6527028704232889e-06  -2.0350415242936530e-06  2.5267507998732503e-06  1.7990886315359781e-06  1.0329555521047755e-06  -1.7402376733001477e-06  -6.8923532882256862e-06  5.8866593468149995e-06  4.7124341670801513e-05  8.5441819515739460e-05  -5.5359127996508473e-04  -4.3276842086604106e-04  -1.5822719588186893e-04  3.5788162850714888e-04  3.8532763849198441e-04  3.7547039102958852e-04  3.1725803163138377e-04  1.8194622657659057e-04  6.1496744361707508e-05  2.5991879798410035e-06  2.5070376527510799e-06  1.4872710089030415e-05  1.1203361073872999e-05  -5.9442036946455897e-06  2.3799061830073882e-06  3.6364851096975455e-06  -9.1154676645724692e-07  -5.6513760797455687e-07  1.5349709342866231e-07  -1.7382218089805405e-07  -8.5285457189455507e-07  1.7245525190163412e-06  1.3208980399025173e-06  2.2002410588672448e-07  -1.5333994617562459e-07  4.3282896777610138e-08  6.2626293393797873e-09  -1.5471256874451257e-08  1.3470762214407440e-07  -8.0090708298050236e-07  5.0118355683864879e-06  -3.7764523406742311e-05  7.4852496891652522e-04  3.7412022956934887e-03  -9.0552661718929089e-03  -2.6689764668083527e-02  3.3471122163076156e-02  1.4377194264812759e-01  2.5598914161214020e-01  3.2697737834327112e-01  3.2390659668697647e-01  2.8044890092955121e-01  2.0694046018098561e-01  1.3259800987233633e-01  1.2404665227293733e-02  5.7053231857645832e-02  5.3137398017857024e-02  -3.4402408171418045e-03  3.8916080294228918e-02  1.1954002851560079e-01  1.5465936238070283e-01  1.4699224483983767e-01  1.1843006705331023e-01  6.5823892905326600e-02  8.2439373995688604e-03  9.9994882674477747e-01  9.9921774646885098e-01  9.9312004418815614e-01  9.8178341512581946e-01  9.7413421506180686e-01  9.5829313218962187e-01  9.1241225700555673e-01  7.3459094395093316e-01  1.2636626287367250e-01  -1.0277278139764560e-01  1.7987086199315099e-02  -1.9898498285175060e-03  -3.4253430607829476e-03  -1.9284427336161570e-03  -1.3805332636396680e-03  -5.1141846384267185e-03  -1.7838543150019780e-02  -3.3090449523184233e-02  -8.5794325226109455e-02  -3.5217016349409708e-01  -2.6012046653682447e-01  -1.5224466326646591e-01  -7.6703181312220953e-02  -4.5241562061593844e-03  9.7242085158152081e-02  1.8480521473131781e-01  3.8450561331498778e-01  4.4511881697935551e-01  4.9331440257117276e-01  5.0633848779702573e-01  5.5163886554550134e-01  5.1368028602669691e-01  4.8127849952908097e-01  4.7117678854979134e-01  4.7188342620586454e-01  4.6737828770675827e-01  4.4033027507501388e-01  3.9470343333155589e-01  3.7930058031148117e-01  4.1784623488807032e-01  4.4111344065769442e-01  4.7309710217866374e-01  4.9313889353343748e-01  5.0568022679162117e-01  4.8472362830652788e-01  4.5736474597081889e-01  4.0967773119338202e-01  3.5881114796439079e-01  3.1023429983228612e-01  2.7993856434835673e-01  2.7370427738789344e-01  2.9466015898884357e-01  3.7249287333913911e-01  4.3464779074722315e-01  5.3642015229656470e-01  5.4120377083483506e-01  5.4690450934941170e-01  5.0746575221994628e-01  4.6144186030545120e-01  4.2314382320583388e-01  3.9428784530939431e-01  3.6659153368598490e-01  3.2586988906344266e-01  2.7519742186768914e-01  2.2481766092218874e-01  1.8895646822589421e-01  1.8051185250946117e-01  2.1006315951934432e-01  2.5187237050868455e-01  2.7525809773232007e-01  2.8015219486106335e-01  2.5538612424592017e-01  2.2723854572659619e-01  1.7392770071002767e-01  1.5636593548202093e-01  2.1960842736241187e-01  1.9769082623852513e-01  2.0683750762975367e-01  1.9069390223665558e-01  1.4332252458044803e-01  7.8688065545650596e-02  4.2317350636575421e-02  5.6498698687816672e-02  1.0017321256544712e-01  2.2179928091517573e-01  2.5082076465789244e-01  2.3115663221360869e-01  2.0849028797374458e-01  1.5076343349839133e-01  7.2708290289515393e-02  1.6753670787114573e-02  -1.4277860632858026e-02  -2.4167810718246335e-02  -2.9347780334084989e-02  -2.2605713639023774e-02  -8.9934977262246113e-03  -9.3715375794310909e-03  -1.1531328006877738e-03  -4.1450229694010819e-03  -4.8611095097574417e-03  -4.3811935464319928e-03  -1.8380240346175191e-03  -5.8593378348667730e-04  1.8047173432038895e-04  -2.0328951266288968e-05  -2.9508817239195315e-05  7.7246608612639036e-07  -5.0021030638354876e-06  5.2268804206185376e-07  2.9040079883476742e-07  3.9949331728125902e-06  -1.8036338108332462e-06  -5.9002966839190070e-05  -1.0616909478525905e-04  -2.1254887212169632e-04  -2.6802449657126784e-04  -1.9963683138188632e-04  -2.2391164172944205e-04  -3.0826140830752288e-04  -1.6654481367251112e-04  1.7279006149397051e-04  3.6209409404870218e-04  4.6228255588649049e-04  3.9121523388636821e-04  4.0026405193355761e-04  3.4129517381603766e-04  2.1766142105250137e-04  1.5309520903426620e-04  1.1011655818262782e-04  7.8938477637334600e-05  9.8603969509234617e-05  1.6797468737773789e-04  1.7066675172094296e-04  1.2562986305753273e-04  8.4189989138542520e-05  7.2116869144960320e-05  1.1798209999872414e-04  3.0619173766384790e-04  5.5803282703295240e-04  4.4651659110223204e-04  -2.3766258447143608e-03  -6.2762203748648483e-03  -2.8119675275174418e-02  -2.3541078491488038e-02  -2.0905415828606510e-02  -1.8259027011817298e-02  -1.4921451228549994e-02  -1.2484129670302265e-02  -1.1061749121059760e-02  6.5242041378652116e-01  6.7514336520150986e-01  6.8946775417079720e-01  7.5293357709009634e-01  7.8696519050913838e-01  7.9072525394994675e-01  7.9278042586861053e-01  8.3011998981111856e-01  8.1493123348935503e-01  8.0422839746251029e-01  7.8572272428225154e-01  7.6444435443117531e-01  7.0995401357423615e-01  6.8883511219213034e-01  6.5043352660755238e-01  5.7612252388835516e-01  6.5872078008941948e-01  6.6493344601150051e-01  6.6159642706863553e-01  6.7928115278023804e-01  7.1386356754303060e-01  7.3703172633578140e-01  7.5124277743190371e-01  7.5467889962666346e-01  6.9909587999235978e-01  6.3388647627006967e-01  4.4570108496084287e-01  3.2593160121404291e-01  3.7743333579934679e-01  4.6269442996404170e-01  4.5350661242817203e-01  5.0426938068902072e-01  1.0111846593725422e+00  1.0054906567417741e+00  1.0045274653607095e+00  1.0056306715523888e+00  1.0038933631815989e+00  1.0032622748069506e+00  1.0030029369701021e+00  1.0029150591523999e+00  1.0047723438761191e+00  1.0074429376803216e+00  1.0084917287253541e+00  1.0098088885152203e+00  1.0133106195822448e+00  1.0136617738249243e+00  1.0121052525209064e+00  1.0128037761712563e+00  -2.7011887437492909e-04  2.0611573984439006e-04  4.3111574955673372e-04  4.9584388298009945e-04  6.8819031360255461e-04  5.9571178196190968e-04  5.8270709260722421e-04  -2.8066002163497985e-04  -8.6253722619905138e-04  8.7934816529903277e-05  4.2029587902653636e-05  -9.9372246159036714e-05  -4.9749004414202233e-03  -1.9915480946334801e-02  -1.3844223804699166e-02  -1.7466502737128884e-02  9.9620778361056950e-01  9.9725861430473217e-01  9.9917993117658566e-01  9.9972528730137744e-01  9.9906373129927972e-01  9.9901997099406126e-01  1.0003042136027878e+00  9.9940137067570245e-01  9.9955354660694740e-01  9.9973556558941201e-01  1.0003457597098151e+00  1.0012405630469368e+00  9.9693622629624312e-01  9.9632036346726449e-01  9.9685060815048188e-01  9.9718032238455756e-01  5.9716692075264310e-02  7.8080776269114832e-02  8.8730618613218237e-02  8.7535886365360097e-02  9.6878507807176870e-02  1.2912442608068458e-01  1.5968690675118821e-01  1.9929476787413697e-01  1.9952300970846337e-01  2.4288289985611203e-01  3.0652823163432064e-01  2.8897999072721992e-01  2.1636797010376671e-01  1.8464401239459674e-01  1.7493924225145499e-01  1.4560677533446656e-01  8.8616724779457187e-02  1.3195483750935955e-01  1.5226648679054380e-01  1.6407613636973206e-01  1.7624941947705650e-01  1.9147800210746055e-01  2.0776304001711052e-01  2.2159048306822071e-01  2.2903782682957460e-01  2.2287951393452496e-01  2.1753623336512287e-01  2.1117807377627154e-01  2.0334201650321143e-01  1.7709096810842323e-01  1.1206255503830928e-01  1.5919482510753043e-02  7.2908635159855362e-01  7.9477616102645299e-01  8.5769414399143051e-01  9.1668605211698639e-01  9.6255368296115951e-01  9.6802866201364035e-01  9.6556461985503939e-01  9.5239418262967135e-01  9.3644892644941879e-01  9.3200044985897512e-01  9.2698883754677941e-01  8.9814875612744260e-01  8.3975698506768681e-01  7.8136196465905350e-01  4.7317402406163162e-01  5.6145181299764435e-01  2.8494302486502432e-01  3.9065765466430474e-01  5.7777231596949030e-01  6.8578153177074452e-01  7.7431210766688985e-01  7.9665078938946776e-01  8.1378447300301637e-01  8.3329521968394538e-01  8.3055407346910182e-01  8.1324044537169093e-01  8.1339908612678413e-01  8.2678165569856232e-01  8.3152863359684526e-01  8.2192498638130884e-01  5.8955240439219847e-01  1.0447531128305694e-01  2.2327834255772752e-01  2.5037671175943799e-01  2.6627112725781998e-01  3.4983105269026599e-01  4.5744599413789377e-01  4.7047101703450972e-01  4.5708928067901128e-01  4.3039194701096734e-01  3.9653351224537742e-01  4.6409778476979691e-01  4.3521213012559234e-01  4.4276838518182016e-01  3.8513536215921923e-01  3.4255495757466103e-01  2.8352051187602129e-01  1.3473026043586434e-01  2.2433835917734072e-02  3.8419450410875938e-02  4.8301061121620206e-02  4.4135373829558240e-02  1.0900625949521120e-01  2.1294838527296839e-01  2.3515356299614795e-01  2.4763855800932358e-01  2.1466913874806345e-01  1.8360849489414952e-01  1.3129592850538635e-01  9.1512297024434322e-02  1.2463672594613448e-01  1.0405337742613713e-01  9.6055545804074410e-02  8.1727001750709641e-02  9.5158128331186187e-01  1.0068602347898927e+00  1.0369866240585530e+00  1.0276906216090858e+00  1.0270095345495263e+00  1.0263543541102882e+00  1.0243396662099955e+00  1.0237306724599076e+00  1.0275870215709300e+00  1.0240291568531321e+00  1.0262900944934508e+00  1.0169953944188226e+00  2.9960314059325760e-01  -1.0486402481638162e-01  -2.1025937330078771e-02  1.52334012686