<?xml version="1.0"?>
<VTKFile type="UnstructuredGrid"  version="0.1"  >
<UnstructuredGrid>
<Piece  NumberOfPoints="4448" NumberOfCells="7310">
<Points>
<DataArray  type="Float64"  NumberOfComponents="3"  format="ascii">0 0 0  0 1 0  5 1 0  5 0 0  2.685965962967975 0.6199970297988864 0  2.585965962967975 0.7199970297988864 0  2.485965962967974 0.6199970297988864 0  2.585965962967975 0.5199970297988864 0  2.887457126027364 0.718961842035438 0  2.787457126027364 0.818961842035438 0  2.687457126027364 0.718961842035438 0  2.787457126027364 0.618961842035438 0  0.8769895867556056 0.290401976457433 0  0.7769895867556056 0.390401976457433 0  0.6769895867556056 0.290401976457433 0  0.7769895867556056 0.190401976457433 0  4.376177735165038 0.8808430758872411 0  4.276177735165039 0.9808430758872411 0  4.176177735165039 0.8808430758872411 0  4.276177735165039 0.7808430758872411 0  0.6141057752375989 0.3768652333524785 0  0.5141057752375989 0.4768652333524784 0  0.4141057752375989 0.3768652333524785 0  0.5141057752375989 0.2768652333524785 0  4.630582754177703 0.6406480284476114 0  4.530582754177703 0.7406480284476114 0  4.430582754177704 0.6406480284476114 0  4.530582754177703 0.5406480284476114 0  4.896214045309746 0.4187630456168357 0  4.796214045309746 0.5187630456168357 0  4.696214045309747 0.4187630456168357 0  4.796214045309746 0.3187630456168358 0  2.155589080094151 0.2204087294390689 0  2.055589080094151 0.320408729439069 0  1.955589080094151 0.2204087294390689 0  2.055589080094151 0.1204087294390689 0  2.404826935341426 0.8737119164346264 0  2.304826935341426 0.9737119164346264 0  2.204826935341426 0.8737119164346264 0  2.304826935341426 0.7737119164346264 0  2.964213492896404 0.1174061699058604 0  2.864213492896404 0.2174061699058604 0  2.764213492896404 0.1174061699058604 0  2.864213492896404 0.01740616990586039 0  3.582837128300153 0.298032837113745 0  3.482837128300153 0.3980328371137449 0  3.382837128300153 0.298032837113745 0  3.482837128300153 0.1980328371137449 0  0.8088212649691964 0.7502337282029031 0  0.7088212649691964 0.8502337282029031 0  0.6088212649691964 0.7502337282029031 0  0.7088212649691964 0.6502337282029031 0  4.223801910336278 0.5002442229252277 0  4.123801910336279 0.6002442229252277 0  4.023801910336279 0.5002442229252277 0  4.123801910336279 0.4002442229252278 0  4.922353386628925 0.2017240624096503 0  4.822353386628925 0.3017240624096503 0  4.722353386628925 0.2017240624096503 0  4.822353386628925 0.1017240624096503 0  2.206072007496676 0.5374870999379825 0  2.106072007496676 0.6374870999379825 0  2.006072007496676 0.5374870999379825 0  2.106072007496676 0.4374870999379825 0  4.32315537674505 0.6819384234094167 0  4.22315537674505 0.7819384234094167 0  4.123155376745051 0.6819384234094167 0  4.22315537674505 0.5819384234094167 0  3.715487240450959 0.1001729247534523 0  3.615487240450959 0.2001729247534523 0  3.515487240450959 0.1001729247534523 0  3.615487240450959 0.0001729247534522776 0  1.763896808309352 0.814597031442381 0  1.663896808309352 0.914597031442381 0  1.563896808309352 0.814597031442381 0  1.663896808309352 0.7145970314423811 0  2.134954894404413 0.8503736436135857 0  2.034954894404413 0.9503736436135857 0  1.934954894404413 0.8503736436135857 0  2.034954894404413 0.7503736436135857 0  4.032081200799731 0.8883073324077129 0  3.932081200799732 0.9883073324077128 0  3.832081200799732 0.8883073324077129 0  3.932081200799732 0.7883073324077129 0  1.720272337623273 0.315263346238785 0  1.620272337623273 0.415263346238785 0  1.520272337623273 0.315263346238785 0  1.620272337623273 0.215263346238785 0  2.849341852368551 0.3377485432764519 0  2.749341852368551 0.4377485432764519 0  2.649341852368551 0.3377485432764519 0  2.749341852368551 0.2377485432764519 0  0.353954769751299 0.3076959497508149 0  0.253954769751299 0.4076959497508149 0  0.153954769751299 0.3076959497508149 0  0.253954769751299 0.2076959497508149 0  4.220679522741156 0.1330663414655305 0  4.120679522741156 0.2330663414655305 0  4.020679522741156 0.1330663414655305 0  4.120679522741156 0.03306634146553053 0  4.03846295264503 0.2615603127259356 0  3.93846295264503 0.3615603127259356 0  3.83846295264503 0.2615603127259356 0  3.93846295264503 0.1615603127259356 0  1.258185597494404 0.7951208458533302 0  1.158185597494404 0.8951208458533302 0  1.058185597494404 0.7951208458533302 0  1.158185597494404 0.6951208458533302 0  2.66756980469976 0.2103205042379263 0  2.567569804699759 0.3103205042379263 0  2.467569804699759 0.2103205042379263 0  2.567569804699759 0.1103205042379263 0  3.066183082511723 0.4648897272298002 0  2.966183082511723 0.5648897272298001 0  2.866183082511723 0.4648897272298002 0  2.966183082511723 0.3648897272298002 0  3.876160132013113 0.5302140905286264 0  3.776160132013113 0.6302140905286264 0  3.676160132013113 0.5302140905286264 0  3.776160132013113 0.4302140905286265 0  4.435786682356577 0.1191533144960393 0  4.335786682356577 0.2191533144960393 0  4.235786682356578 0.1191533144960393 0  4.335786682356577 0.01915331449603927 0  3.657464697025493 0.6000278738124513 0  3.557464697025493 0.7000278738124512 0  3.457464697025493 0.6000278738124513 0  3.557464697025493 0.5000278738124513 0  3.695085226088024 0.8183916024406818 0  3.595085226088024 0.9183916024406817 0  3.495085226088024 0.8183916024406818 0  3.595085226088024 0.7183916024406818 0  0.6716618480696921 0.5839650746876788 0  0.5716618480696921 0.6839650746876788 0  0.4716618480696921 0.5839650746876788 0  0.5716618480696921 0.4839650746876788 0  3.384667051383998 0.4223896768935983 0  3.284667051383998 0.5223896768935983 0  3.184667051383998 0.4223896768935983 0  3.284667051383998 0.3223896768935983 0  1.283504513865784 0.1674438639117045 0  1.183504513865784 0.2674438639117045 0  1.083504513865784 0.1674438639117045 0  1.183504513865784 0.06744386391170451 0  3.360557185844586 0.8746680565940553 0  3.260557185844585 0.9746680565940553 0  3.160557185844585 0.8746680565940553 0  3.260557185844585 0.7746680565940554 0  1.540529467032703 0.1794710788309493 0  1.440529467032703 0.2794710788309492 0  1.340529467032703 0.1794710788309493 0  1.440529467032703 0.07947107883094925 0  0.328482578588082 0.861302184907903 0  0.228482578588082 0.961302184907903 0  0.128482578588082 0.861302184907903 0  0.228482578588082 0.761302184907903 0  2.433715755666527 0.5671313263739527 0  2.333715755666527 0.6671313263739527 0  2.233715755666527 0.5671313263739527 0  2.333715755666527 0.4671313263739527 0  1.230126416042657 0.4719216314495289 0  1.130126416042657 0.5719216314495289 0  1.030126416042657 0.4719216314495289 0  1.130126416042657 0.3719216314495289 0  0.6116895212263961 0.1109717124183122 0  0.5116895212263961 0.2109717124183123 0  0.4116895212263961 0.1109717124183122 0  0.5116895212263961 0.01097171241831223 0  1.826399793314543 0.5107585635357751 0  1.726399793314543 0.6107585635357751 0  1.626399793314543 0.5107585635357751 0  1.726399793314543 0.4107585635357751 0  1.55211198904505 0.4715062703352436 0  1.45211198904505 0.5715062703352436 0  1.35211198904505 0.4715062703352436 0  1.45211198904505 0.3715062703352436 0  4.634586060050256 0.3908052747188366 0  4.534586060050256 0.4908052747188366 0  4.434586060050257 0.3908052747188366 0  4.534586060050256 0.2908052747188367 0  4.402298611127895 0.3855442737855176 0  4.302298611127895 0.4855442737855176 0  4.202298611127896 0.3855442737855176 0  4.302298611127895 0.2855442737855176 0  1.952879969939083 0.1350676669858752 0  1.852879969939083 0.2350676669858752 0  1.752879969939083 0.1350676669858752 0  1.852879969939083 0.03506766698587516 0  0.2569000568572125 0.624378330560713 0  0.1569000568572125 0.724378330560713 0  0.05690005685721253 0.624378330560713 0  0.1569000568572125 0.524378330560713 0  3.161687137399175 0.8244152317893645 0  3.061687137399175 0.9244152317893645 0  2.961687137399175 0.8244152317893645 0  3.061687137399175 0.7244152317893645 0  2.395032016636657 0.3643063846039553 0  2.295032016636657 0.4643063846039552 0  2.195032016636657 0.3643063846039553 0  2.295032016636657 0.2643063846039553 0  2.617463499593836 0.8856904558897764 0  2.517463499593836 0.9856904558897763 0  2.417463499593836 0.8856904558897764 0  2.517463499593836 0.7856904558897764 0  3.421102286656348 0.6813514212092414 0  3.321102286656348 0.7813514212092414 0  3.221102286656348 0.6813514212092414 0  3.321102286656348 0.5813514212092414 0  2.449787661472024 0.1680638375564639 0  2.349787661472024 0.2680638375564639 0  2.249787661472024 0.1680638375564639 0  2.349787661472024 0.06806383755646392 0  3.355617450537308 0.1968805330923727 0  3.255617450537307 0.2968805330923727 0  3.155617450537307 0.1968805330923727 0  3.255617450537307 0.09688053309237274 0  1.503825997254619 0.6923599081039139 0  1.403825997254619 0.7923599081039139 0  1.303825997254619 0.6923599081039139 0  1.403825997254619 0.5923599081039139 0  4.810628718351659 0.8986629234755887 0  4.710628718351659 0.9986629234755887 0  4.610628718351659 0.8986629234755887 0  4.710628718351659 0.7986629234755888 0  0.5404316710680832 0.8720628158042852 0  0.4404316710680832 0.9720628158042852 0  0.3404316710680833 0.8720628158042852 0  0.4404316710680832 0.7720628158042853 0  4.973460784063308 0.7469193359422902 0  4.873460784063308 0.8469193359422902 0  4.773460784063309 0.7469193359422902 0  4.873460784063308 0.6469193359422902 0  1.004252616630607 0.8231219524210824 0  0.9042526166306074 0.9231219524210824 0  0.8042526166306074 0.8231219524210824 0  0.9042526166306074 0.7231219524210825 0  0.28081752570913 0.1080256308500591 0  0.18081752570913 0.2080256308500591 0  0.08081752570912998 0.1080256308500591 0  0.18081752570913 0.008025630850059071 0  1.069684414289768 0.1432175458177037 0  0.9696844142897676 0.2432175458177037 0  0.8696844142897676 0.1432175458177037 0  0.9696844142897676 0.04321754581770368 0  2.027723889848873 0.4050114807802901 0  1.927723889848873 0.5050114807802901 0  1.827723889848873 0.4050114807802901 0  1.927723889848873 0.3
[...]
<PointData  Scalars="f_1325"> 
<DataArray  type="Float64"  Name="f_1325"  format="ascii">1.0000000000000000e+00  1.0000000000000000e+00  7.8794951944968394e-11  -6.2738563156935839e-04  6.7327885959013886e-02  2.3198036696408236e-01  3.2858896672057081e-01  1.7475713833378168e-01  9.3396718771325105e-02  1.3094398434290891e-01  1.7387750003018676e-01  4.5478616520503255e-03  1.0005403788460159e+00  1.0055690314945249e+00  1.0037283968302633e+00  1.0115123154454690e+00  2.9551330754355449e-05  1.6122272357527123e-07  -6.4989627389763231e-07  2.5314091301135890e-05  9.8921675084819305e-01  9.9986796271345657e-01  9.9810867952872384e-01  9.9685916702866673e-01  -1.7018522484921902e-03  2.9697184595594959e-04  2.8308987886805498e-03  6.4650577497350767e-03  -1.4165240645491143e-03  6.5494033373725228e-03  1.6806564506532617e-02  1.2780748808088157e-02  3.0811992784538129e-02  4.0565744328020198e-01  5.1031209434351066e-01  2.1199475900715889e-01  6.5920901026857819e-03  1.6987146676026871e-01  3.5203756793254831e-01  3.3878649909884517e-01  1.0732618886544350e-03  2.7298764816709932e-02  2.3157764633897262e-02  2.7219895378069542e-02  -1.6053838093042672e-02  -2.2301692434358172e-02  5.1620443791906764e-03  6.4561631026081358e-04  7.0522510746176686e-02  1.0173742349169042e+00  1.0590363680793589e+00  5.3381194334292692e-01  1.5728362684395765e-02  3.4394354509718027e-04  2.5939702236321359e-03  1.8684871118555813e-02  -8.5997356438059064e-04  1.0480226045492928e-02  2.3508253507354724e-02  1.2835700823028836e-02  9.4646706587647282e-03  5.4655861045858942e-02  9.2437537626139793e-02  -2.2138907972744513e-02  -5.2584821248268258e-04  1.9724991906034445e-07  1.4720706457788281e-05  -4.1966647652175209e-04  -7.3117751571628959e-05  -1.9966514209557843e-04  7.0785318594306465e-06  -2.0671493202473606e-08  3.8506350619667518e-01  5.7811433445929927e-01  6.2135399987514472e-01  3.6910836639546729e-01  6.4307191381712636e-01  6.9020533600161971e-01  7.1049932757043843e-01  6.4190042983712603e-01  -3.1807570684245954e-06  1.1576493293368118e-09  1.6941971569384668e-07  1.9355674150475460e-04  3.5135526304575709e-01  6.8964227169881498e-01  9.4050655716636722e-01  7.4858631927551567e-01  1.9031079979362868e-03  -5.7081473276613202e-03  4.3243020848401171e-03  2.0351616967202502e-02  9.9398600388156155e-01  9.9089357291667501e-01  9.8623114526323497e-01  9.4715669266094438e-01  4.6357043775025034e-04  -6.8361310945193685e-03  1.2818134629351910e-05  -2.5654428142335793e-07  -1.1867096676079934e-02  -2.3580205095915102e-02  -1.9332620822006313e-03  3.8368469723791387e-05  6.5525838626441313e-01  2.6729798073369898e-01  6.0160388886429417e-01  5.9275822904015352e-01  -5.7683100966208758e-03  1.3046002289733176e-04  1.4523024312797296e-02  2.1994588087791672e-02  -1.5239611531162628e-03  -1.4294155991723002e-02  3.1801005065977806e-03  2.8699301723563208e-03  -8.3318807596226962e-03  6.1922239925586822e-06  -1.0221007610122183e-02  1.7791722333176153e-02  -7.9602408253295800e-04  -1.6140979534796287e-02  -6.6030024634234925e-04  -2.2564532668399594e-06  8.4465661746702261e-05  4.3041928404036703e-05  -3.0655478359250223e-02  4.7642641718060964e-02  -7.2138521921904259e-09  -1.8168646619651899e-05  -2.6969681662899933e-04  2.1275115205365018e-05  5.3725836081028111e-01  1.0663413780405278e+00  1.0187629272049628e+00  9.9944322032125066e-01  -2.5957755871365649e-02  -5.9839816465188593e-02  -2.4465688720206017e-03  8.1120733849388907e-03  7.1073330085824071e-01  7.1250976468963201e-01  3.7246102258472108e-01  4.5105654727582051e-01  1.6114933482038122e-04  3.2444031349021414e-02  1.9113032958979793e-03  -1.4402580916185324e-05  7.4665757949736522e-01  8.1757445695573550e-01  9.5478553843115921e-01  9.5423644146614384e-01  2.1571805540769048e-01  9.9292248161973262e-01  9.8839300608578973e-01  9.7088319227897801e-01  -2.2227879361971271e-02  -2.9297343634782941e-02  4.9466502662161675e-03  -1.0474950455052121e-03  -1.5788173834072200e-01  9.8168812741647515e-01  1.0282707233997004e+00  1.0242321091781499e+00  5.6953876983654550e-01  7.4926947420604462e-01  -5.6881023308289320e-02  6.4936977562952470e-04  1.7654094509675816e-01  -1.6793347563009858e-01  -2.4190665592148029e-02  2.5969898497747712e-01  2.2780734653628801e-01  7.6260477172316557e-02  -9.0696138096118317e-02  2.6148722369591432e-01  3.5646582048971330e-02  9.8711766528987444e-03  5.0192743732205239e-02  4.8563700069509226e-02  5.2393107155748880e-02  6.0416365752673706e-03  4.3176992227023814e-02  6.0156386305408684e-02  3.0538760341244109e-01  3.0756389255523708e-01  4.5044440989769213e-01  6.0783027916821442e-01  5.5430862478008747e-01  1.0015722261006661e+00  9.9886469218506546e-01  9.9797351786385846e-01  -1.2717994500456516e-04  3.5457412715403355e-02  1.0290370846562499e-01  6.5933561830010937e-02  1.4372887185083532e-03  -2.9547962455832083e-04  2.2207603986934148e-02  6.8173073103396853e-03  2.2433878688149092e-01  4.1886415567404895e-03  -1.6888403710021898e-04  2.3517573309182505e-01  1.6538784759621409e-03  1.4887675180007647e-05  -2.6079208505092318e-02  2.5489420152753461e-01  -9.0539090061623703e-04  1.9023971939324906e-03  -1.0252058358358608e-02  -2.9230746471165681e-02  2.2703165010838407e-03  9.7227205380211248e-03  1.0496668044719121e-03  -3.4656839038085419e-06  6.2002045665217254e-01  8.8739616319159365e-01  8.8065539335313836e-01  4.6763320718818163e-01  1.0965655704839881e-07  2.4250289979089931e-08  6.3718021757390224e-06  9.7543242227670730e-06  8.9381193840625051e-01  9.4401221426548865e-01  6.1586228550837202e-02  9.5709267009363619e-01  2.3971259938394565e-05  1.5716042794318564e-07  2.9660537789080159e-05  -2.0694868729180652e-03  1.6991406733424613e-01  9.7312598331876454e-01  4.8251379096510522e-01  -1.3977922899930993e-02  -1.9319353913604408e-02  9.2069654008742563e-01  9.7733864959365957e-01  5.9484840916211656e-01  2.7118806136666762e-01  8.9548464204626621e-01  9.2501060172030714e-01  9.8917446620972715e-01  1.1727511560732476e-01  3.5312940899820666e-01  4.4722714388603396e-01  3.9996430759343787e-01  9.3795504143957242e-01  1.0038642108057014e+00  8.5638733853066851e-01  7.4187472973280810e-01  3.1452029718873681e-01  4.8075814899825009e-01  6.4468138624450400e-01  5.8843765652884827e-01  4.6206578192954861e-01  -9.5268672774865084e-04  -1.3981694725525571e-02  5.9304267531626442e-01  1.2192156525481911e-03  1.3336310596275160e-02  1.5414479785542270e-02  -1.0338707986769262e-04  5.0405392290047617e-04  2.1833291653786016e-07  2.7741985603377441e-08  -4.5962566456886488e-05  -1.7372876232259601e-03  -5.6956590456398691e-03  -4.2658529048408931e-04  -8.6984978000949671e-06  6.0384105916074918e-05  4.6338343391953175e-04  2.4484299961121162e-03  -3.6579698394573366e-03  1.0000000000000000e+00  1.0000000000000000e+00  1.0000000000000000e+00  1.0000000000000000e+00  1.0000000000000000e+00  1.0000000000000000e+00  1.0000000000000000e+00  1.0000000000000000e+00  1.0000000000000000e+00  1.0000000000000000e+00  1.0000000000000000e+00  1.0000000000000000e+00  1.0000000000000000e+00  1.0000000000000000e+00  1.0000000000000000e+00  1.0000000000000000e+00  1.0000000000000000e+00  1.0000000000000000e+00  1.0000000000000000e+00  1.0000000000000000e+00  1.0000000000000000e+00  1.0000000000000000e+00  1.0000000000000000e+00  1.0000000000000000e+00  1.0000000000000000e+00  1.0000000000000000e+00  1.0000000000000000e+00  1.0000000000000000e+00  1.0000000000000000e+00  9.9925790276528392e-01  9.9781753758709979e-01  9.9629592157070224e-01  9.9529013358913476e-01  9.9592787128491767e-01  9.9587063111525587e-01  9.9485067746373479e-01  9.9287913374553327e-01  9.9046433405878420e-01  9.8926262948638521e-01  1.0014508622143812e+00  1.0393710218143524e+00  1.0257725081145719e+00  1.0250120092583423e+00  1.0288842172896009e+00  1.0298365843479305e+00  1.0315510526234530e+00  1.0150590103050263e+00  1.0076884163019151e+00  1.0055323551132020e+00  9.9357123065659880e-01  9.9851815787778020e-01  9.8651239021062309e-01  9.7257293395291899e-01  9.6368592514184803e-01  9.5084505756096838e-01  9.1926601493971360e-01  9.0084631504673751e-01  8.8780719205402081e-01  8.6122134014512763e-01  8.3316754766093182e-01  8.0195587768398757e-01  7.6100268172844232e-01  7.2728207425488567e-01  6.9266273760558739e-01  6.4850238242929514e-01  5.9049149320545713e-01  5.1193357755828250e-01  4.2375927671867247e-01  3.2861301383465974e-01  2.3267530261859734e-01  1.5032392289852306e-01  1.1265809904227218e-01  6.7653939763407514e-02  7.7161229296472289e-02  7.2018368392420859e-02  1.3179221586587533e-01  1.7212844540473207e-01  3.2573983102590198e-01  3.3241907061098586e-01  3.1530695653398688e-01  3.2864467036641382e-01  2.8519887352168727e-01  2.3155742386568529e-01  2.0517086392018724e-01  1.7299988983600756e-01  1.8938986767354560e-01  2.3235503030862878e-01  3.5615570741356573e-01  3.8816553678530497e-01  4.1502047083167098e-01  4.2654427541658579e-01  3.8299667010442007e-01  3.2914239385476696e-01  2.6181997406010898e-01  1.7570336645194903e-01  9.8350633379946331e-02  1.2782304530119085e-01  1.1631451750234872e-01  9.1294505639838736e-02  5.3972529620094724e-02  2.0022225698391717e-02  8.8079579165161077e-03  4.3564018547992949e-03  3.4753552692786474e-03  2.7467333609087212e-03  1.6730583116891214e-03  -2.5211841406159752e-04  -5.6338643441128794e-03  -4.6058855264045101e-02  -7.1899273904156791e-02  -6.4304264407728282e-02  -6.3819966731063799e-02  -5.5708669707757411e-02  -4.6562880890798845e-02  -4.0926385940119922e-02  -3.9125981897487123e-02  -3.1773913348258763e-02  -3.5643308078643444e-02  -2.7342413316500953e-02  -2.1239323383547559e-02  -1.9355007473302200e-02  -1.4471508098040689e-02  -7.5974741144935317e-03  -2.9365994754854863e-03  7.2845361015052316e-03  1.9310556491626978e-02  1.8437269299990438e-02  1.4632225325717714e-02  1.0972260894614193e-02  5.5460702347410627e-03  3.4386058016616574e-04  -1.9514930792620096e-03  -1.2191598479931356e-03  -2.4585577221710315e-04  -9.1975896857433736e-05  -6.6065293309425967e-05  -2.2086539844190185e-05  -7.1632704750311067e-06  -2.0910010219997180e-06  -2.9764163271129507e-07  9.7074793617937803e-08  4.1202108258330739e-09  6.8901251015632193e-10  1.5545059817444607e-10  7.5870898416319725e-11  -6.4850981704749809e-11  -1.2302607157060061e-09  -7.1796893034873503e-09  -1.6862300627281914e-08  6.7584843429846636e-09  2.7810422120584584e-08  1.2062182497168285e-07  -2.0839529591005312e-07  -1.3270883849806707e-07  -5.1811322085849962e-08  1.3116247289076141e-07  1.1560648224577862e-07  9.0992154783262022e-08  4.9182845479380961e-08  1.1117545894720410e-08  -6.4494732773468722e-08  -1.8924362699715706e-07  -3.5785656499768827e-07  -5.6677689017719087e-07  -4.9874850143135243e-07  2.0056872022208176e-07  -6.5263302787315795e-09  -9.9634256786013375e-08  -2.3058222172373807e-09  -2.7207704417903094e-09  7.2576567726907960e-09  -1.0637703765270969e-09  -6.3096352728638651e-10  2.2913618681487910e-09  -1.4330297247953976e-10  -4.4051713387368839e-10  2.1562940404048271e-10  -3.8111094259761566e-11  -1.5748088357638830e-10  6.2402903557761341e-10  -3.6848813145673547e-09  2.1426856689833043e-08  -1.2022399869718620e-07  8.8874116541409958e-07  -1.6223428393285584e-05  -8.8329236810497739e-05  2.2814400078036872e-04  -1.4544417443484361e-03  -1.3063810663964919e-03  3.6579096029054105e-03  1.0989072021214076e-02  1.7767568389589653e-02  1.9584884616011551e-02  1.6809544269246541e-02  9.1243979853735547e-03  3.1645067465489911e-03  -3.3444019650376761e-04  4.8068451758724606e-04  3.3692582878690956e-04  -5.4138626726202113e-05  3.6098609804711242e-05  3.0662408873530994e-03  6.7843465105138978e-03  8.4735678711181164e-03  7.7767700975622835e-03  4.5269187543565421e-03  5.9380142701394854e-04  9.9825328568331295e-01  9.8526513798252291e-01  8.9278718929800904e-01  7.2930129522608889e-01  6.3965985353429200e-01  5.2994674444079981e-01  3.7541747054766211e-01  8.2565824360757309e-02  -2.2863379435579017e-02  8.1278328049611166e-03  -2.4286946809298215e-03  1.5646808137100472e-03  -3.5135192279408949e-05  1.5692763189076417e-04  -1.1454201045794007e-04  -1.3430729833674787e-03  -5.3859899956069154e-03  -1.0056185432533725e-02  -2.5844225337832510e-02  -2.0484256094947614e-01  -1.9421442827036395e-01  -1.6122696183983423e-01  -1.3986017944404927e-01  -1.3994152237098473e-01  -1.2311172697488262e-01  -5.5008909403747829e-02  9.5401218489028244e-02  1.6595011856609274e-01  2.2187413831005301e-01  2.3356987133636131e-01  2.7809702524081509e-01  2.1822045053314063e-01  1.6407103272612897e-01  1.4554575130338113e-01  1.4551005779089329e-01  1.3877907703702311e-01  1.0266791131157149e-01  4.7012898730425169e-02  4.8656099567698244e-02  1.4137940363351498e-01  1.7593655047765683e-01  2.0246060697835983e-01  2.1817748604177326e-01  2.2637893710339321e-01  2.0360783307707386e-01  1.7151931746576798e-01  1.1766022529407696e-01  6.3503841957374102e-02  1.6638467899425566e-02  -1.0921754279517776e-02  -2.1145494928680914e-02  -8.8488651808632333e-03  6.0773801813711462e-02  1.2367614012712444e-01  2.3800569585099723e-01  2.3728841408897172e-01  2.3434608021703995e-01  1.9379067648773474e-01  1.4420922053147653e-01  1.0081830572532317e-01  7.0008416088183811e-02  4.4165457343522382e-02  1.5173033317174126e-02  -1.0608511715391801e-02  -3.0732536363775310e-02  -3.9285121802395628e-02  -3.5958172501538349e-02  -1.3839788360084013e-02  1.9719514850907012e-02  3.3384961405961443e-02  3.1565719745260130e-02  1.4072435862380243e-02  1.3319683813662170e-03  -2.3451633567947411e-02  -2.6096537918296976e-02  8.1415891223403057e-03  -1.0786005243878739e-03  5.9812820703341830e-03  1.8095695953081613e-03  -1.2258587053505054e-02  -2.3128672144143842e-02  -1.3054149929062092e-02  -5.8198565207907170e-03  5.6966638298628313e-04  1.5687000799780922e-02  1.6857475845651240e-02  1.4386374793696902e-02  1.0461413646990004e-02  4.3348184331298062e-03  -5.9827871365774937e-04  -1.3467354627978751e-03  -9.9708860673710579e-04  -5.2901517211367854e-04  -4.3341611804001521e-04  -2.2168051528591949e-04  -7.9894369617412650e-05  -6.8189421414524459e-05  -1.6024058747932687e-05  -2.0363824180509533e-05  -1.3019939219406948e-05  -6.5163167296646386e-06  -7.8246734136728665e-07  2.4256586785525935e-07  1.5096313888114807e-07  -8.3356227786754322e-08  3.9778552687654458e-08  4.8827093821327497e-09  -1.8968505673865489e-08  -2.0856378826219994e-08  -2.6808181006944199e-07  4.3263946003739369e-07  1.6667109900503262e-06  4.5555383702263737e-06  4.1166600838348730e-06  4.4779357111484777e-07  -2.2389661814934849e-06  -1.6856035889112843e-06  -2.8471876220835054e-06  -5.7959488907538195e-06  -2.9763239042303410e-06  1.0273433753299035e-06  1.8814060984945808e-06  1.9628729049420390e-06  9.6041206042054198e-07  6.0069514004298965e-07  5.0453121874124748e-07  1.0261796886532683e-06  7.3875329733449174e-07  6.6422252993261537e-07  4.4497175193070592e-07  1.9155640490266589e-06  5.7299272557189271e-06  5.1089919269974781e-06  3.2084246803099834e-06  1.7539407729085088e-06  2.9491370733864386e-07  3.2509832095032179e-06  1.0748029041129083e-05  1.4620754162810224e-05  -5.0127542850039703e-05  -3.5678908755625889e-04  -5.1666491894754741e-04  -2.0943461126682536e-03  -1.6108368451947530e-03  -1.3174640753598362e-03  -1.0669520742704569e-03  -7.8784120386754140e-04  -5.9044015283086463e-04  -4.7037280713645412e-04  8.5638708064535676e-02  1.0384072421211495e-01  9.2738109505631605e-02  1.8316955203906088e-01  2.4721959049983533e-01  2.4214667740760282e-01  2.5068171029388497e-01  3.2518930131017076e-01  3.0780103054131558e-01  2.9270665015994957e-01  2.6075408132247963e-01  2.1620970767761655e-01  1.4893801963789513e-01  1.2955087531785672e-01  1.0174668276712932e-01  5.7821255461077865e-02  1.0548264436750332e-01  1.0349496818037732e-01  9.4876691103110700e-02  1.1038006316042231e-01  1.4480851215018650e-01  1.7535224399676683e-01  1.9458918008529130e-01  1.9909116272992336e-01  1.4444486198692846e-01  1.0052415746512149e-01  3.1336889241661781e-02  -5.4712054421931526e-03  1.6004997214311908e-02  4.0898909380146585e-02  3.5508264484567113e-02  3.0543788836167568e-02  9.8284423570601098e-01  1.0006885398082299e+00  1.0032516780797527e+00  1.0062828184234518e+00  1.0039494512742322e+00  1.0032195804093118e+00  1.0038125021016704e+00  1.0040145374261706e+00  1.0122709654296707e+00  1.0196773840617952e+00  1.0204300373825428e+00  1.0175379953382349e+00  1.0112469730175144e+00  1.0145657998980990e+00  1.0092532406525956e+00  1.0060400966152805e+00  9.1633168809363418e-07  2.4711370904849883e-07  1.5753849319397060e-07  1.5221368633287502e-07  1.9783203891130541e-07  1.2896351555931883e-07  1.2228794668013316e-07  -2.4571088475755882e-07  2.2025684732069995e-07  -3.5542640818829364e-08  -3.5772009833986979e-07  1.6308145742840464e-06  9.4112223336782021e-05  3.1680935426956213e-04  5.3774116619431055e-05  -5.1841453123050827e-05  9.8818698260674998e-01  9.9522902360116050e-01  1.0002799441708945e+00  1.0004278159843019e+00  9.9916271774677490e-01  9.9879323561506550e-01  9.9999764655740508e-01  9.9778744254626095e-01  9.9840461260202606e-01  9.9876085901594847e-01  9.9971436887238063e-01  1.0005153534966404e+00  9.8614190154942283e-01  9.8316302384389731e-01  9.8688661907019026e-01  9.8938071065074129e-01  -4.0149208679262179e-04  1.4107770425125278e-04  4.1104433511582068e-04  3.2271702300446203e-04  -1.9081368134508343e-05  5.8855391975863407e-04  1.3631612583777783e-03  3.2766999477293829e-03  1.6192422626994821e-03  3.7464495544248565e-03  8.8054755136015260e-03  8.2200770250689774e-03  2.3696102581039729e-03  9.5961815217513130e-04  1.0365060731509805e-03  2.0197657553996891e-04  -2.2103966961060061e-04  2.6288749691659543e-03  4.4340355540001949e-03  5.8763169462845025e-03  7.2081924856452735e-03  9.6058687535412590e-03  1.2458308317187642e-02  1.5165038453717515e-02  1.6242576814335944e-02  1.5255536887401012e-02  1.3645951403486220e-02  1.2017676396116804e-02  1.1037338132821855e-02  7.7120412681753832e-03  2.3884289958167248e-03  -4.1242736947265358e-04  6.9383757879629027e-02  1.2414987677438732e-01  1.8343044681683890e-01  2.8699188886038507e-01  4.5214874300437607e-01  4.9217058412241682e-01  5.2338555219274185e-01  4.7893549103999872e-01  4.4230721026962927e-01  4.2617265837111185e-01  3.8611806101403212e-01  2.9731693601496173e-01  1.5673469309987242e-01  9.7156334234633199e-02  -1.9519777187230083e-03  1.2595951092596340e-02  8.4690166881141553e-03  1.9402240324741506e-02  7.6452446159697235e-02  1.3494256401290172e-01  2.3168673369607490e-01  2.7139496577300337e-01  2.8625239636031002e-01  3.3294688237634801e-01  3.3435371902842020e-01  2.9323255365206308e-01  2.9891945809095827e-01  3.2627845071334283e-01  3.4220493840172828e-01  3.2210322035604749e-01  1.4564062617515161e-01  1.6845207269485126e-02  3.1717255131049164e-03  4.4687473970921017e-03  3.2672210612070427e-03  1.2039775170507061e-02  3.7040364618756753e-02  4.1924090907237144e-02  4.1132068881159334e-02  3.1769817352397541e-02  2.1679144490095219e-02  3.9245582302835418e-02  3.0902366966921925e-02  3.3524651013108704e-02  2.4444706272094899e-02  1.7583387697940531e-02  9.8095630529455857e-03  9.6201842305791534e-04  -2.1514629031446342e-02  -2.2046625046003372e-02  -2.3085402681054062e-02  -2.7336544717397927e-02  -9.7894206009319432e-03  6.8652141146116766e-03  6.6134219487089209e-03  6.6476165713519417e-03  3.6642522865604639e-03  2.5140539046610579e-03  1.0100090319285545e-03  3.4161409294692908e-04  7.6372772456421978e-04  5.8760447748091107e-04  4.2595736592168832e-04  -1.3832107517325952e-04  2.2728363977463747e-01  4.7128301438555925e-01  8.6318614084621093e-01  9.7887021131430219e-01  1.0383509443241365e+00  1.0473203504520128e+00  1.0515172269018851e+00  1.0539006932362716e+00  1.0687680311051899e+00  1.0590029532937906e+00  1.0586751794100211e+00  1.0072994780857045e+00  -5.9909989195177260e-02  2.1414