<?xml version="1.0"?>
<VTKFile type="UnstructuredGrid"  version="0.1"  >
<UnstructuredGrid>
<Piece  NumberOfPoints="4448" NumberOfCells="7310">
<Points>
<DataArray  type="Float64"  NumberOfComponents="3"  format="ascii">0 0 0  0 1 0  5 1 0  5 0 0  2.685965962967975 0.6199970297988864 0  2.585965962967975 0.7199970297988864 0  2.485965962967974 0.6199970297988864 0  2.585965962967975 0.5199970297988864 0  2.887457126027364 0.718961842035438 0  2.787457126027364 0.818961842035438 0  2.687457126027364 0.718961842035438 0  2.787457126027364 0.618961842035438 0  0.8769895867556056 0.290401976457433 0  0.7769895867556056 0.390401976457433 0  0.6769895867556056 0.290401976457433 0  0.7769895867556056 0.190401976457433 0  4.376177735165038 0.8808430758872411 0  4.276177735165039 0.9808430758872411 0  4.176177735165039 0.8808430758872411 0  4.276177735165039 0.7808430758872411 0  0.6141057752375989 0.3768652333524785 0  0.5141057752375989 0.4768652333524784 0  0.4141057752375989 0.3768652333524785 0  0.5141057752375989 0.2768652333524785 0  4.630582754177703 0.6406480284476114 0  4.530582754177703 0.7406480284476114 0  4.430582754177704 0.6406480284476114 0  4.530582754177703 0.5406480284476114 0  4.896214045309746 0.4187630456168357 0  4.796214045309746 0.5187630456168357 0  4.696214045309747 0.4187630456168357 0  4.796214045309746 0.3187630456168358 0  2.155589080094151 0.2204087294390689 0  2.055589080094151 0.320408729439069 0  1.955589080094151 0.2204087294390689 0  2.055589080094151 0.1204087294390689 0  2.404826935341426 0.8737119164346264 0  2.304826935341426 0.9737119164346264 0  2.204826935341426 0.8737119164346264 0  2.304826935341426 0.7737119164346264 0  2.964213492896404 0.1174061699058604 0  2.864213492896404 0.2174061699058604 0  2.764213492896404 0.1174061699058604 0  2.864213492896404 0.01740616990586039 0  3.582837128300153 0.298032837113745 0  3.482837128300153 0.3980328371137449 0  3.382837128300153 0.298032837113745 0  3.482837128300153 0.1980328371137449 0  0.8088212649691964 0.7502337282029031 0  0.7088212649691964 0.8502337282029031 0  0.6088212649691964 0.7502337282029031 0  0.7088212649691964 0.6502337282029031 0  4.223801910336278 0.5002442229252277 0  4.123801910336279 0.6002442229252277 0  4.023801910336279 0.5002442229252277 0  4.123801910336279 0.4002442229252278 0  4.922353386628925 0.2017240624096503 0  4.822353386628925 0.3017240624096503 0  4.722353386628925 0.2017240624096503 0  4.822353386628925 0.1017240624096503 0  2.206072007496676 0.5374870999379825 0  2.106072007496676 0.6374870999379825 0  2.006072007496676 0.5374870999379825 0  2.106072007496676 0.4374870999379825 0  4.32315537674505 0.6819384234094167 0  4.22315537674505 0.7819384234094167 0  4.123155376745051 0.6819384234094167 0  4.22315537674505 0.5819384234094167 0  3.715487240450959 0.1001729247534523 0  3.615487240450959 0.2001729247534523 0  3.515487240450959 0.1001729247534523 0  3.615487240450959 0.0001729247534522776 0  1.763896808309352 0.814597031442381 0  1.663896808309352 0.914597031442381 0  1.563896808309352 0.814597031442381 0  1.663896808309352 0.7145970314423811 0  2.134954894404413 0.8503736436135857 0  2.034954894404413 0.9503736436135857 0  1.934954894404413 0.8503736436135857 0  2.034954894404413 0.7503736436135857 0  4.032081200799731 0.8883073324077129 0  3.932081200799732 0.9883073324077128 0  3.832081200799732 0.8883073324077129 0  3.932081200799732 0.7883073324077129 0  1.720272337623273 0.315263346238785 0  1.620272337623273 0.415263346238785 0  1.520272337623273 0.315263346238785 0  1.620272337623273 0.215263346238785 0  2.849341852368551 0.3377485432764519 0  2.749341852368551 0.4377485432764519 0  2.649341852368551 0.3377485432764519 0  2.749341852368551 0.2377485432764519 0  0.353954769751299 0.3076959497508149 0  0.253954769751299 0.4076959497508149 0  0.153954769751299 0.3076959497508149 0  0.253954769751299 0.2076959497508149 0  4.220679522741156 0.1330663414655305 0  4.120679522741156 0.2330663414655305 0  4.020679522741156 0.1330663414655305 0  4.120679522741156 0.03306634146553053 0  4.03846295264503 0.2615603127259356 0  3.93846295264503 0.3615603127259356 0  3.83846295264503 0.2615603127259356 0  3.93846295264503 0.1615603127259356 0  1.258185597494404 0.7951208458533302 0  1.158185597494404 0.8951208458533302 0  1.058185597494404 0.7951208458533302 0  1.158185597494404 0.6951208458533302 0  2.66756980469976 0.2103205042379263 0  2.567569804699759 0.3103205042379263 0  2.467569804699759 0.2103205042379263 0  2.567569804699759 0.1103205042379263 0  3.066183082511723 0.4648897272298002 0  2.966183082511723 0.5648897272298001 0  2.866183082511723 0.4648897272298002 0  2.966183082511723 0.3648897272298002 0  3.876160132013113 0.5302140905286264 0  3.776160132013113 0.6302140905286264 0  3.676160132013113 0.5302140905286264 0  3.776160132013113 0.4302140905286265 0  4.435786682356577 0.1191533144960393 0  4.335786682356577 0.2191533144960393 0  4.235786682356578 0.1191533144960393 0  4.335786682356577 0.01915331449603927 0  3.657464697025493 0.6000278738124513 0  3.557464697025493 0.7000278738124512 0  3.457464697025493 0.6000278738124513 0  3.557464697025493 0.5000278738124513 0  3.695085226088024 0.8183916024406818 0  3.595085226088024 0.9183916024406817 0  3.495085226088024 0.8183916024406818 0  3.595085226088024 0.7183916024406818 0  0.6716618480696921 0.5839650746876788 0  0.5716618480696921 0.6839650746876788 0  0.4716618480696921 0.5839650746876788 0  0.5716618480696921 0.4839650746876788 0  3.384667051383998 0.4223896768935983 0  3.284667051383998 0.5223896768935983 0  3.184667051383998 0.4223896768935983 0  3.284667051383998 0.3223896768935983 0  1.283504513865784 0.1674438639117045 0  1.183504513865784 0.2674438639117045 0  1.083504513865784 0.1674438639117045 0  1.183504513865784 0.06744386391170451 0  3.360557185844586 0.8746680565940553 0  3.260557185844585 0.9746680565940553 0  3.160557185844585 0.8746680565940553 0  3.260557185844585 0.7746680565940554 0  1.540529467032703 0.1794710788309493 0  1.440529467032703 0.2794710788309492 0  1.340529467032703 0.1794710788309493 0  1.440529467032703 0.07947107883094925 0  0.328482578588082 0.861302184907903 0  0.228482578588082 0.961302184907903 0  0.128482578588082 0.861302184907903 0  0.228482578588082 0.761302184907903 0  2.433715755666527 0.5671313263739527 0  2.333715755666527 0.6671313263739527 0  2.233715755666527 0.5671313263739527 0  2.333715755666527 0.4671313263739527 0  1.230126416042657 0.4719216314495289 0  1.130126416042657 0.5719216314495289 0  1.030126416042657 0.4719216314495289 0  1.130126416042657 0.3719216314495289 0  0.6116895212263961 0.1109717124183122 0  0.5116895212263961 0.2109717124183123 0  0.4116895212263961 0.1109717124183122 0  0.5116895212263961 0.01097171241831223 0  1.826399793314543 0.5107585635357751 0  1.726399793314543 0.6107585635357751 0  1.626399793314543 0.5107585635357751 0  1.726399793314543 0.4107585635357751 0  1.55211198904505 0.4715062703352436 0  1.45211198904505 0.5715062703352436 0  1.35211198904505 0.4715062703352436 0  1.45211198904505 0.3715062703352436 0  4.634586060050256 0.3908052747188366 0  4.534586060050256 0.4908052747188366 0  4.434586060050257 0.3908052747188366 0  4.534586060050256 0.2908052747188367 0  4.402298611127895 0.3855442737855176 0  4.302298611127895 0.4855442737855176 0  4.202298611127896 0.3855442737855176 0  4.302298611127895 0.2855442737855176 0  1.952879969939083 0.1350676669858752 0  1.852879969939083 0.2350676669858752 0  1.752879969939083 0.1350676669858752 0  1.852879969939083 0.03506766698587516 0  0.2569000568572125 0.624378330560713 0  0.1569000568572125 0.724378330560713 0  0.05690005685721253 0.624378330560713 0  0.1569000568572125 0.524378330560713 0  3.161687137399175 0.8244152317893645 0  3.061687137399175 0.9244152317893645 0  2.961687137399175 0.8244152317893645 0  3.061687137399175 0.7244152317893645 0  2.395032016636657 0.3643063846039553 0  2.295032016636657 0.4643063846039552 0  2.195032016636657 0.3643063846039553 0  2.295032016636657 0.2643063846039553 0  2.617463499593836 0.8856904558897764 0  2.517463499593836 0.9856904558897763 0  2.417463499593836 0.8856904558897764 0  2.517463499593836 0.7856904558897764 0  3.421102286656348 0.6813514212092414 0  3.321102286656348 0.7813514212092414 0  3.221102286656348 0.6813514212092414 0  3.321102286656348 0.5813514212092414 0  2.449787661472024 0.1680638375564639 0  2.349787661472024 0.2680638375564639 0  2.249787661472024 0.1680638375564639 0  2.349787661472024 0.06806383755646392 0  3.355617450537308 0.1968805330923727 0  3.255617450537307 0.2968805330923727 0  3.155617450537307 0.1968805330923727 0  3.255617450537307 0.09688053309237274 0  1.503825997254619 0.6923599081039139 0  1.403825997254619 0.7923599081039139 0  1.303825997254619 0.6923599081039139 0  1.403825997254619 0.5923599081039139 0  4.810628718351659 0.8986629234755887 0  4.710628718351659 0.9986629234755887 0  4.610628718351659 0.8986629234755887 0  4.710628718351659 0.7986629234755888 0  0.5404316710680832 0.8720628158042852 0  0.4404316710680832 0.9720628158042852 0  0.3404316710680833 0.8720628158042852 0  0.4404316710680832 0.7720628158042853 0  4.973460784063308 0.7469193359422902 0  4.873460784063308 0.8469193359422902 0  4.773460784063309 0.7469193359422902 0  4.873460784063308 0.6469193359422902 0  1.004252616630607 0.8231219524210824 0  0.9042526166306074 0.9231219524210824 0  0.8042526166306074 0.8231219524210824 0  0.9042526166306074 0.7231219524210825 0  0.28081752570913 0.1080256308500591 0  0.18081752570913 0.2080256308500591 0  0.08081752570912998 0.1080256308500591 0  0.18081752570913 0.008025630850059071 0  1.069684414289768 0.1432175458177037 0  0.9696844142897676 0.2432175458177037 0  0.8696844142897676 0.1432175458177037 0  0.9696844142897676 0.04321754581770368 0  2.027723889848873 0.4050114807802901 0  1.927723889848873 0.5050114807802901 0  1.827723889848873 0.4050114807802901 0  1.927723889848873 0.3
[...]
<PointData  Scalars="f_19"> 
<DataArray  type="Float64"  Name="f_19"  format="ascii">1.0000000000000000e+00  1.0000000000000000e+00  2.0281450658451397e-11  -5.3857261737502239e-05  7.2244552717827580e-03  5.7486610930347494e-02  1.1019734603885145e-01  3.9847773242247822e-02  1.3105584671997857e-02  2.0372227517720515e-02  3.9507837768668223e-02  -1.1956651984813091e-03  8.8157048086919998e-01  9.8563249913752604e-01  9.9425920840858784e-01  9.3722756890336845e-01  1.8813229333023695e-06  2.0537995243136845e-09  -4.9236995127965156e-09  2.1543383288531011e-06  9.9043068928757871e-01  1.0005197617949424e+00  9.9913138068003771e-01  9.9545009570042453e-01  -1.1402689000581474e-04  -6.8891872813296008e-06  5.9591174877952538e-05  3.0265290497386255e-04  -1.0475024865095846e-04  4.1281916565817650e-04  1.7017406777541692e-03  1.1427514606491484e-03  4.6475190393220378e-04  1.0999390755298420e-01  1.6874754566607289e-01  3.6330571924034501e-02  2.6478755041039106e-03  3.7810253450388583e-02  1.2936170027626195e-01  1.3248221426343021e-01  -1.3390693507134092e-05  2.0703663078526667e-03  1.3473104156170733e-03  2.3584170154857306e-03  -2.4140893081970841e-03  -4.4849909694647449e-03  2.9575549195828268e-04  1.6489159702495583e-05  -1.1275677093310824e-02  8.6556608104844146e-01  1.0592192657171284e+00  1.7703656404986687e-01  1.1753822446729522e-03  6.8124704302583240e-06  -1.0719474468267700e-03  7.7069109146356556e-04  -4.1768176220648409e-05  8.9104867093342185e-04  2.6400664269221525e-03  1.1287945344559910e-03  4.0870735470309758e-04  7.0691259252299266e-04  5.2992710157914935e-03  -4.8431936782513231e-03  -2.3544873061553205e-05  1.8624535680011785e-08  3.0573024292576297e-07  -1.9957275909893029e-06  -4.9020101348559297e-06  -1.5971545225001428e-05  2.1389020023907405e-07  -1.8346674287001117e-09  1.2760727872755104e-01  3.1980120520351962e-01  3.4121828243771801e-01  9.8323957268879728e-02  3.1048969383908737e-01  3.8178192193915328e-01  4.1126030672149899e-01  3.5517494209199524e-01  2.6039620189301562e-08  -9.3215980000122718e-12  7.5109957833275086e-09  6.2802479907086196e-06  5.7035038673554347e-02  2.3436559991448497e-01  5.7965713998044022e-01  3.1149915669124306e-01  -3.0928096431568063e-04  -9.8450012485143027e-05  2.4040944632060514e-04  1.6137560680547847e-03  9.7163022517594999e-01  9.5760182762273671e-01  9.4720126347169509e-01  8.3945514604968163e-01  6.7753573310658401e-05  -9.5191815060007359e-04  2.1344567571346187e-06  8.3140344827406194e-08  -1.5704872040927271e-03  -3.8698675803806883e-03  -1.4346554245221922e-04  3.7116053012663866e-06  3.8147127443455758e-01  7.0228189438882857e-02  2.5777078506119599e-01  2.6223793161752212e-01  -1.3992623236331061e-03  -4.3806231299808673e-05  1.3057576522852790e-03  1.4834794087335882e-03  -1.0452586694757625e-04  -1.8847222681761242e-03  5.0567233620142660e-04  -5.9507276022128241e-05  -1.5323419848474380e-03  -1.2253578268130094e-08  -1.5878486649165142e-03  1.0359443195503346e-03  -6.4675128474571801e-05  -2.1055266848578036e-03  -8.8491199542928639e-05  -1.6722460627597857e-07  -3.9833845349350082e-06  1.2992539934047808e-06  -5.2219797785139979e-03  6.5688839240961661e-03  -2.0197368203850998e-10  -2.9506705958057786e-07  -9.0844997442121681e-06  3.2475245850610417e-08  1.3814490797754170e-01  1.1057416156534901e+00  1.0333295718895996e+00  1.0006845318300241e+00  -5.3110890150744579e-03  -1.5118279534493037e-02  -2.4109437759268294e-04  4.4912726704401284e-04  3.9384840442640162e-01  4.0610594537638234e-01  1.0762136196847087e-01  2.4270402347678868e-01  -5.5414933632974569e-05  3.0114139138533642e-03  3.4700557883148210e-04  4.8234564043612414e-05  3.7460311432955312e-01  4.6772948952598353e-01  7.5004888356718402e-01  6.5132429593742858e-01  -3.0495801027131616e-02  9.7354517890454217e-01  9.6331305877556861e-01  8.9792267753132726e-01  -1.7496442731366146e-02  -4.1546465839802128e-03  3.0660398634289263e-04  -2.5313211413273157e-04  -1.2416032632627194e-01  7.6402043773671757e-01  9.9893641623795726e-01  9.3921333545198271e-01  3.7321351153220422e-01  6.1571378005104194e-01  2.7757474252927902e-02  2.8571831332417690e-04  3.2302277411512224e-02  -7.4455811106581060e-02  -2.1525476553963176e-02  5.4435393147048983e-02  4.6319917766708296e-02  3.0353017193138730e-02  -3.4188367842954433e-02  1.7135340530419992e-02  3.5630269872093897e-03  5.7722527862593158e-04  5.9396490712823975e-03  5.4652909438200224e-03  5.8595595064720434e-03  2.7574632591619973e-04  4.5880499669684301e-03  7.0821323077757741e-03  7.9583079398950804e-02  7.6233460570996989e-02  1.5393400405534194e-01  2.5897785662371936e-01  1.9445102037470222e-01  9.9890817753752770e-01  9.9474238841258311e-01  9.8849870208296731e-01  4.8856941323955633e-05  2.2497278021368899e-03  1.1463121304308299e-02  2.2371284940898152e-03  9.2616336151902940e-05  -7.9222114899193114e-05  -2.7332211424618610e-03  1.2504225405866271e-03  5.8703202628227015e-02  1.6461863549720659e-04  -2.1789842144401697e-03  8.0538310330974236e-02  2.4835983155583675e-04  5.1763655572791469e-06  -5.4458621045444236e-03  5.3883137173843527e-02  -5.3552455431511736e-04  1.6421644248720908e-04  -1.2771057783464105e-03  -9.1108445044448157e-03  8.2974615237986962e-05  5.6736967854309050e-04  3.3844841275736015e-05  -2.7219741949431808e-08  2.4092599092609604e-01  5.3645706861364417e-01  5.5509055671558838e-01  1.3178852206041089e-01  6.8724170946438108e-10  1.3616456779173233e-09  3.8521432054047732e-07  2.0962424083808743e-06  6.3037072500776703e-01  9.1139092074523242e-01  -6.1010838899733508e-02  8.3269815620345800e-01  2.6894448784518772e-06  2.0984824756176673e-09  4.3454163051458592e-06  -1.3501256561233215e-04  9.2847986243613928e-02  8.5169355459754403e-01  1.4308689218873391e-01  -3.8944148235337895e-03  8.9887927941639644e-03  7.8533202744599973e-01  9.3352839746781457e-01  2.3852962798727573e-01  5.8025229628028543e-02  7.2669358408938123e-01  8.3270457369267947e-01  8.7414813128828983e-01  9.8694993679403643e-03  7.1778211072472231e-02  1.1479681232300343e-01  1.0549753510007187e-01  8.8512008547616927e-01  9.8165833201533781e-01  5.7521385279575621e-01  6.3004769345569944e-01  4.4662527834816175e-02  9.8015182229028344e-02  2.5719762679295227e-01  2.1449240287128962e-01  2.0489616178052594e-01  -3.4140906327408444e-03  -7.7718008630837068e-02  4.7418475380292729e-01  4.2885180724640142e-05  9.0536947488783701e-04  1.1368787349587701e-03  -2.2944320937112145e-06  2.2749377364254335e-05  8.8902251696369653e-09  5.6839745110132737e-09  -1.9023977588815943e-06  -8.5256577918120692e-05  -5.7870095520597934e-04  -4.1901932739614648e-05  -3.1725436310271006e-07  1.4878049671294422e-06  1.3265183425924886e-05  1.0101740299119694e-04  -4.3364284986392579e-04  1.0000000000000000e+00  1.0000000000000000e+00  1.0000000000000000e+00  1.0000000000000000e+00  1.0000000000000000e+00  1.0000000000000000e+00  1.0000000000000000e+00  1.0000000000000000e+00  1.0000000000000000e+00  1.0000000000000000e+00  1.0000000000000000e+00  1.0000000000000000e+00  1.0000000000000000e+00  1.0000000000000000e+00  1.0000000000000000e+00  1.0000000000000000e+00  1.0000000000000000e+00  1.0000000000000000e+00  1.0000000000000000e+00  1.0000000000000000e+00  1.0000000000000000e+00  1.0000000000000000e+00  1.0000000000000000e+00  1.0000000000000000e+00  1.0000000000000000e+00  1.0000000000000000e+00  1.0000000000000000e+00  1.0000000000000000e+00  1.0000000000000000e+00  9.9619213859155453e-01  9.8879621490526415e-01  9.8104513845088992e-01  9.7660275493550985e-01  9.8103550906320902e-01  9.8296996403661996e-01  9.8175440765102306e-01  9.7823680876533747e-01  9.7183607180188891e-01  9.7369208635776361e-01  9.8949576767594705e-01  1.0439313286263756e+00  1.0246115582075439e+00  1.0227843155614436e+00  1.0241831018960674e+00  1.0164803003632679e+00  9.9797072722793867e-01  9.0645706443614338e-01  8.5909078360793023e-01  8.4241327203692762e-01  8.0438274071343741e-01  8.4981328302869985e-01  8.1200472147771374e-01  7.8115274723085271e-01  7.9207826465566011e-01  7.6461020232896215e-01  7.0574886762638367e-01  6.6760435970571597e-01  6.3450956009946380e-01  5.8110763499432161e-01  5.2013614045208167e-01  4.6053213528954551e-01  4.0281831842725113e-01  3.5939918309141045e-01  3.1779397721629854e-01  2.6961202440310467e-01  2.0837563282336971e-01  1.3493587465637083e-01  6.5863311744914901e-02  6.7076095456448774e-04  -4.2887097624975265e-02  -7.3503046891356907e-02  -8.0948185223819885e-02  -1.0173333309991120e-01  -1.2496353930998153e-01  -1.1592030772072238e-01  -6.3176468592935700e-02  -2.5478666838973284e-02  8.3430067232264940e-02  9.0416083975587133e-02  7.5647813997785474e-02  9.5535165438258476e-02  6.3144579306149265e-02  2.1664672667144749e-02  1.8967045470231664e-02  1.7160386486090220e-03  1.3523911634796850e-02  4.7757294273553158e-02  1.3795381166389928e-01  1.6456902344732827e-01  1.8684048534593312e-01  1.9608011152620641e-01  1.5884532345343280e-01  1.1483946264825302e-01  6.7460637513799340e-02  2.8627669692017962e-02  6.3430965260666133e-03  2.7605980936179671e-02  2.3832919343385679e-02  1.6000674977215724e-02  6.5018588775005871e-03  1.0429860582280666e-03  3.1278818756911555e-04  9.9129761584224645e-05  1.3607564915096946e-04  1.8972480166350251e-04  3.0093023397627762e-04  2.6686243222741822e-04  5.9488137759002924e-04  -7.1466221845406120e-03  -1.7638668187115961e-02  -1.6463653699018276e-02  -1.7495414863416176e-02  -1.4100380628143727e-02  -1.0300715150350344e-02  -8.2498064365196435e-03  -6.6410678116793622e-03  -4.9225819915657007e-03  -7.2430303429237876e-03  -4.9553358377763769e-03  -3.5633868682922979e-03  -3.3225336365366727e-03  -2.4330811335474853e-03  -1.3523016235194533e-03  -6.1185387039182609e-04  5.6396257435148325e-04  1.8762136625537038e-03  1.7169888911111601e-03  1.2944585681492556e-03  8.7115059269229412e-04  3.2228712867525175e-04  -9.1170528823418062e-05  -1.6950950587685295e-04  -5.7051330198644089e-05  -4.3873121344128113e-06  -2.0647234891433924e-06  -1.4245526526020074e-06  -3.3930673871363919e-07  -9.3759866775859764e-08  -2.2190950840616432e-08  -1.7115976119427431e-09  7.3989305855179472e-10  -2.9457513814830024e-11  1.1212026421119223e-11  -4.9358241064280159e-12  4.7736591980626075e-13  3.0920006802342141e-12  1.6174026496591443e-11  8.6076392282550382e-11  2.1887054140208085e-10  -1.6003357505362440e-11  2.3283038169652332e-10  1.2107222132973372e-09  -1.4695951387567021e-09  -8.9052310982170105e-10  -4.2357401721337910e-10  5.4725582341338346e-10  1.1959677411674082e-10  -1.1338006718529919e-09  -3.3297798373382901e-09  -1.9617760204597667e-09  -3.3389861201347770e-09  -1.0833594073329033e-08  -1.8455256535034854e-08  -2.4349446529810283e-08  -1.9606512169811258e-08  9.9880959052265926e-09  -8.0331899819606112e-10  -4.8810774982330387e-09  3.5222664613531018e-10  2.6298946782722370e-10  1.2042143999692856e-10  -7.3969805426838607e-12  2.2047866522456652e-11  7.7430501190997638e-12  -3.4403088932817155e-12  -4.9146316653244076e-12  5.2218983076448263e-12  5.7978444421893640e-12  -4.4284850574096642e-11  1.5261452410498590e-10  -7.0164228791814629e-10  3.4883267803052038e-09  -1.7535751669063188e-08  1.2300788266306637e-07  -1.6837186614443733e-06  -8.1522657672327357e-06  1.9902118813604998e-05  -9.6866557615691865e-05  -1.4234924298987410e-04  2.4127106541390949e-04  8.8255025355479669e-04  1.5187958443825084e-03  1.7081216060771042e-03  1.4384114538910156e-03  6.6607294749119366e-04  1.6890098310497437e-04  -2.5042793072599436e-05  1.6128955302437689e-05  8.3550820934196210e-06  2.6614079756703155e-07  -1.0509173269455811e-05  1.6726689561614885e-04  5.0151020181574374e-04  7.4944646453235157e-04  7.4648828849721181e-04  4.4893518189491929e-04  5.2789816406105492e-05  9.9412752344179400e-01  9.5188781959580282e-01  7.1327221976194799e-01  4.0938287573712939e-01  2.8746038398293722e-01  1.7241277288999579e-01  6.5912304436997804e-02  -1.1657969913496175e-02  2.8356692797748412e-03  -1.1820764642428477e-03  -1.9508581483682609e-05  -5.0822947159167350e-04  3.4510315807852318e-04  2.5741983813612631e-04  1.5916086537819536e-04  -1.1423104049390388e-04  -7.1610538677067785e-04  -1.5950017666570445e-03  -3.7752540243777446e-03  -9.5734477562100503e-02  -1.2477188359422167e-01  -1.2910784313978982e-01  -1.3039083372403532e-01  -1.6121293476650619e-01  -1.9177789764942910e-01  -1.4137512601313171e-01  -5.2649391346467796e-02  1.9861757093307564e-02  7.7141660736037440e-02  8.8581289845075753e-02  1.3686303305304620e-01  7.8512760867955791e-02  2.9056828308157572e-02  2.1762991830269078e-02  2.8064329881634844e-02  2.6441245516284483e-02  -1.2802604515702088e-03  -4.1744082502011441e-02  -2.7603952439112397e-02  6.8754850748161164e-02  9.7709523859845049e-02  1.0701168858547318e-01  1.1073173159541866e-01  1.0997208021173834e-01  8.9630524355992433e-02  6.2518736729864716e-02  2.1466844190834177e-02  -1.3787276939723495e-02  -3.4435434030511518e-02  -3.9889433171844506e-02  -4.1674503263332573e-02  -3.4611189430242613e-02  1.7079820484349293e-03  3.6166221455855005e-02  1.0344251794043494e-01  1.0002538059314574e-01  9.3914816718924279e-02  7.0994610136606476e-02  4.3263106023560462e-02  2.1403411866389950e-02  8.6068056847211256e-03  -6.5494492707604502e-04  -9.5019581562921923e-03  -1.4498417705038265e-02  -1.7309173287410808e-02  -1.6836424376304240e-02  -1.4324454447271298e-02  -8.0494250505266894e-03  9.0740329270027145e-04  4.1457748108488643e-03  3.2326567436719252e-03  -1.4739600626926101e-03  -4.3656957116568681e-03  -1.0088884364640883e-02  -9.6399387981433160e-03  -1.4636324289743349e-03  -3.0096259506460178e-03  -1.0509706054555922e-03  -1.5579906875558143e-03  -3.8557638209188840e-03  -4.7991892494255771e-03  -1.9658901255297577e-03  -9.2950244795332127e-04  -1.8438624614008358e-04  1.4633848754500444e-03  1.4881880819626241e-03  1.2145667068176255e-03  7.8639869505002025e-04  2.2690194139571887e-04  -1.1224013642400520e-04  -9.5599441832087441e-05  -4.9625363163198671e-05  -1.9921677481301542e-05  -1.4991241604076720e-05  -6.3915227005337556e-06  -2.0608984001677665e-06  -1.6090292891962154e-06  -3.4637704080545588e-07  -3.9100717669222521e-07  -2.0218584937541291e-07  -7.7692687266777006e-08  -6.4911540299115180e-10  5.1446345212217868e-09  -1.5854673858840889e-09  -1.0692375261051636e-11  6.4045204092534564e-10  3.1035765285978132e-10  -2.0044239921590090e-09  -1.6253875062747739e-09  -9.6034572755811124e-09  2.9050060122033752e-08  3.5717304047435300e-08  2.8524461503200450e-07  3.6965600221558888e-07  1.5057499543782068e-07  8.7737166087455742e-09  1.2560303633534955e-08  -4.9865334958646165e-08  -2.2638167277028480e-07  -1.2581623814761715e-07  1.9205167076499863e-08  3.3870317880083812e-08  -6.8430645924452296e-10  -6.4716402145017081e-08  -1.0298743472389456e-07  -4.7996656936993828e-08  6.3474631158934313e-08  4.7996426065989278e-08  4.7849776581371840e-08  3.0637297510108206e-08  1.4033741626873790e-07  4.1729723537292826e-07  3.1889036502897347e-07  1.9883328232563878e-07  1.0471394282888598e-07  -6.7168793967545183e-08  5.9898884672814379e-08  2.2326776031181301e-07  -4.8440933647432274e-07  -8.3133896850295077e-06  -5.0478252556542615e-05  -6.0387116269961801e-05  -2.3959303084102092e-04  -1.7797249578159374e-04  -1.4010750758424188e-04  -1.1071996429002822e-04  -8.0158947120468818e-05  -5.7585317540526390e-05  -4.2050615812710299e-05  1.0498540911837523e-02  1.3569334139117106e-02  -2.4916578549917696e-03  3.3012444141664300e-02  6.5160404301911057e-02  6.1290511434551082e-02  6.8360448168753932e-02  1.0777688639910826e-01  9.9985298286883920e-02  9.2585190646380280e-02  7.7045557961247249e-02  5.6280571608504838e-02  3.0735380905085267e-02  2.4646975115869791e-02  1.7043013992488563e-02  6.5233266087865120e-03  1.5565134000221468e-02  1.3863255753894748e-02  9.6797993146605296e-03  1.4090181732411186e-02  2.5007011833657205e-02  3.7218891402238351e-02  4.4904294064518617e-02  4.6504348401397007e-02  2.9528284765031339e-02  1.7034565683893166e-02  3.1297533366982737e-03  -3.3052270905482841e-03  8.9063752404804194e-04  5.1904164809140566e-03  3.5119490685781027e-03  -3.2715121504716385e-03  8.4593187917853541e-01  9.5530703993859867e-01  9.7627525386468883e-01  9.8420788694211392e-01  9.8609664658187901e-01  9.8867058055743950e-01  9.9318802683696339e-01  9.9503787519995757e-01  1.0077185321716338e+00  1.0119689563256902e+00  1.0053195657286522e+00  9.8217041008539274e-01  9.2787069424894375e-01  9.4449641345236279e-01  9.3800899268522886e-01  9.1908697100742898e-01  1.0316728705546451e-07  2.4314087561197460e-08  7.2991654552047705e-09  3.8696872348905457e-09  1.8015366958979360e-09  8.2749702265817493e-10  6.6940011014637598e-10  -2.0179222033142735e-09  7.2030797708155599e-09  -4.1847534849093420e-09  -2.7756031884132091e-08  1.5812718310034908e-07  7.6673230235104937e-06  2.6596977073299714e-05  8.0770080790504231e-06  2.5969103560631780e-06  9.9004956704442604e-01  9.9523493500737770e-01  1.0010439000323450e+00  1.0015012344397256e+00  9.9996086644853832e-01  1.0003371708925213e+00  1.0015532922213679e+00  9.9887043528852104e-01  9.9958646248191541e-01  9.9982065308462698e-01  9.9966841775122872e-01  9.9910074529755721e-01  9.8213926040696620e-01  9.7797888372873876e-01  9.8524479200052451e-01  9.9004960691946742e-01  -3.8537293566149343e-05  -9.2575864780283709e-06  3.2118847809971166e-06  -2.8015646883814022e-06  -3.8314629076480536e-05  -2.5240700349939706e-05  -5.9245143022214163e-07  1.1849207667095999e-04  -7.5646664291717392e-05  3.7321412590800945e-05  4.0572788643803716e-04  4.3613918228380409e-04  -2.5902066357187452e-05  -9.4160347879302316e-05  -6.9714125223822187e-05  -1.0231090203086354e-04  -1.6118495394958418e-04  4.2215283810819974e-05  2.0143683834261304e-04  3.5277880557679959e-04  4.6640626821562044e-04  7.3409543612775222e-04  1.1055204682804737e-03  1.4831690743075047e-03  1.6210245894393870e-03  1.4734047136485786e-03  1.2120387286254524e-03  1.0138403382694643e-03  9.2887728970237769e-04  5.7092686291697000e-04  1.1157144004737154e-04  -2.5962239016204943e-05  5.1285633157431417e-03  1.5867386309674700e-02  2.8788575835532473e-02  6.0322337459702030e-02  1.3401452295657626e-01  1.5597374074326345e-01  1.7508451964937108e-01  1.5450125668148121e-01  1.3712833777366165e-01  1.2743376293885939e-01  1.0583040602268498e-01  6.8319637506541159e-02  1.7963350577176355e-02  5.5760235580071286e-03  -2.7872505785500757e-03  -1.2408171520475555e-03  1.0143884297859184e-03  1.1142918856210605e-03  1.1233826400786878e-02  2.6033467154078394e-02  6.2527446482637902e-02  8.1499914785861147e-02  8.0144810914919956e-02  1.1425757616626098e-01  1.1607194089506627e-01  8.7117161053341913e-02  9.9844393198966180e-02  1.2870239077191653e-01  1.3088259417722359e-01  1.1520097036926086e-01  2.9322469792564480e-02  9.5352589609931405e-03  8.7596856244901756e-05  1.3270898652508256e-04  -1.7311158089391727e-04  2.4188534933199004e-04  3.4831554836067414e-03  4.1840502926333151e-03  4.0360926425602912e-03  2.4433596472515262e-03  8.9243929239059565e-04  3.7792486845183155e-03  2.6460920635179210e-03  3.0332243482016252e-03  2.0136584551737279e-03  1.2987372847259203e-03  5.7568929167625476e-04  -1.7134631210039020e-06  -3.7786700231930799e-03  -4.0988094147005874e-03  -4.4831616636890493e-03  -5.4992459737461686e-03  -1.7674636699404067e-03  9.1903119840743561e-04  6.7685035056211840e-04  5.7959176940658712e-04  1.7300706556500211e-04  1.0528986887398062e-04  3.1221444463913663e-05  5.5335856473741260e-06  2.0538368054102836e-05  1.4321547763732178e-05  1.3595684286961439e-06  -6.6300362144946530e-05  -8.6129889120120182e-03  6.5175018728360692e-02  4.2145848905872990e-01  7.4738214069440290e-01  9.2515754631749769e-01  9.7138077928037481e-01  1.0124489312891833e+00  1.0370673593971822e+00  1.0880139580005666e+00  1.0223406761064726e+00  9.5686551512646145e-01  7.8324143369