<?xml version="1.0"?>
<VTKFile type="UnstructuredGrid"  version="0.1"  >
<UnstructuredGrid>
<Piece  NumberOfPoints="4448" NumberOfCells="7310">
<Points>
<DataArray  type="Float64"  NumberOfComponents="3"  format="ascii">0 0 0  0 1 0  5 1 0  5 0 0  2.685965962967975 0.6199970297988864 0  2.585965962967975 0.7199970297988864 0  2.485965962967974 0.6199970297988864 0  2.585965962967975 0.5199970297988864 0  2.887457126027364 0.718961842035438 0  2.787457126027364 0.818961842035438 0  2.687457126027364 0.718961842035438 0  2.787457126027364 0.618961842035438 0  0.8769895867556056 0.290401976457433 0  0.7769895867556056 0.390401976457433 0  0.6769895867556056 0.290401976457433 0  0.7769895867556056 0.190401976457433 0  4.376177735165038 0.8808430758872411 0  4.276177735165039 0.9808430758872411 0  4.176177735165039 0.8808430758872411 0  4.276177735165039 0.7808430758872411 0  0.6141057752375989 0.3768652333524785 0  0.5141057752375989 0.4768652333524784 0  0.4141057752375989 0.3768652333524785 0  0.5141057752375989 0.2768652333524785 0  4.630582754177703 0.6406480284476114 0  4.530582754177703 0.7406480284476114 0  4.430582754177704 0.6406480284476114 0  4.530582754177703 0.5406480284476114 0  4.896214045309746 0.4187630456168357 0  4.796214045309746 0.5187630456168357 0  4.696214045309747 0.4187630456168357 0  4.796214045309746 0.3187630456168358 0  2.155589080094151 0.2204087294390689 0  2.055589080094151 0.320408729439069 0  1.955589080094151 0.2204087294390689 0  2.055589080094151 0.1204087294390689 0  2.404826935341426 0.8737119164346264 0  2.304826935341426 0.9737119164346264 0  2.204826935341426 0.8737119164346264 0  2.304826935341426 0.7737119164346264 0  2.964213492896404 0.1174061699058604 0  2.864213492896404 0.2174061699058604 0  2.764213492896404 0.1174061699058604 0  2.864213492896404 0.01740616990586039 0  3.582837128300153 0.298032837113745 0  3.482837128300153 0.3980328371137449 0  3.382837128300153 0.298032837113745 0  3.482837128300153 0.1980328371137449 0  0.8088212649691964 0.7502337282029031 0  0.7088212649691964 0.8502337282029031 0  0.6088212649691964 0.7502337282029031 0  0.7088212649691964 0.6502337282029031 0  4.223801910336278 0.5002442229252277 0  4.123801910336279 0.6002442229252277 0  4.023801910336279 0.5002442229252277 0  4.123801910336279 0.4002442229252278 0  4.922353386628925 0.2017240624096503 0  4.822353386628925 0.3017240624096503 0  4.722353386628925 0.2017240624096503 0  4.822353386628925 0.1017240624096503 0  2.206072007496676 0.5374870999379825 0  2.106072007496676 0.6374870999379825 0  2.006072007496676 0.5374870999379825 0  2.106072007496676 0.4374870999379825 0  4.32315537674505 0.6819384234094167 0  4.22315537674505 0.7819384234094167 0  4.123155376745051 0.6819384234094167 0  4.22315537674505 0.5819384234094167 0  3.715487240450959 0.1001729247534523 0  3.615487240450959 0.2001729247534523 0  3.515487240450959 0.1001729247534523 0  3.615487240450959 0.0001729247534522776 0  1.763896808309352 0.814597031442381 0  1.663896808309352 0.914597031442381 0  1.563896808309352 0.814597031442381 0  1.663896808309352 0.7145970314423811 0  2.134954894404413 0.8503736436135857 0  2.034954894404413 0.9503736436135857 0  1.934954894404413 0.8503736436135857 0  2.034954894404413 0.7503736436135857 0  4.032081200799731 0.8883073324077129 0  3.932081200799732 0.9883073324077128 0  3.832081200799732 0.8883073324077129 0  3.932081200799732 0.7883073324077129 0  1.720272337623273 0.315263346238785 0  1.620272337623273 0.415263346238785 0  1.520272337623273 0.315263346238785 0  1.620272337623273 0.215263346238785 0  2.849341852368551 0.3377485432764519 0  2.749341852368551 0.4377485432764519 0  2.649341852368551 0.3377485432764519 0  2.749341852368551 0.2377485432764519 0  0.353954769751299 0.3076959497508149 0  0.253954769751299 0.4076959497508149 0  0.153954769751299 0.3076959497508149 0  0.253954769751299 0.2076959497508149 0  4.220679522741156 0.1330663414655305 0  4.120679522741156 0.2330663414655305 0  4.020679522741156 0.1330663414655305 0  4.120679522741156 0.03306634146553053 0  4.03846295264503 0.2615603127259356 0  3.93846295264503 0.3615603127259356 0  3.83846295264503 0.2615603127259356 0  3.93846295264503 0.1615603127259356 0  1.258185597494404 0.7951208458533302 0  1.158185597494404 0.8951208458533302 0  1.058185597494404 0.7951208458533302 0  1.158185597494404 0.6951208458533302 0  2.66756980469976 0.2103205042379263 0  2.567569804699759 0.3103205042379263 0  2.467569804699759 0.2103205042379263 0  2.567569804699759 0.1103205042379263 0  3.066183082511723 0.4648897272298002 0  2.966183082511723 0.5648897272298001 0  2.866183082511723 0.4648897272298002 0  2.966183082511723 0.3648897272298002 0  3.876160132013113 0.5302140905286264 0  3.776160132013113 0.6302140905286264 0  3.676160132013113 0.5302140905286264 0  3.776160132013113 0.4302140905286265 0  4.435786682356577 0.1191533144960393 0  4.335786682356577 0.2191533144960393 0  4.235786682356578 0.1191533144960393 0  4.335786682356577 0.01915331449603927 0  3.657464697025493 0.6000278738124513 0  3.557464697025493 0.7000278738124512 0  3.457464697025493 0.6000278738124513 0  3.557464697025493 0.5000278738124513 0  3.695085226088024 0.8183916024406818 0  3.595085226088024 0.9183916024406817 0  3.495085226088024 0.8183916024406818 0  3.595085226088024 0.7183916024406818 0  0.6716618480696921 0.5839650746876788 0  0.5716618480696921 0.6839650746876788 0  0.4716618480696921 0.5839650746876788 0  0.5716618480696921 0.4839650746876788 0  3.384667051383998 0.4223896768935983 0  3.284667051383998 0.5223896768935983 0  3.184667051383998 0.4223896768935983 0  3.284667051383998 0.3223896768935983 0  1.283504513865784 0.1674438639117045 0  1.183504513865784 0.2674438639117045 0  1.083504513865784 0.1674438639117045 0  1.183504513865784 0.06744386391170451 0  3.360557185844586 0.8746680565940553 0  3.260557185844585 0.9746680565940553 0  3.160557185844585 0.8746680565940553 0  3.260557185844585 0.7746680565940554 0  1.540529467032703 0.1794710788309493 0  1.440529467032703 0.2794710788309492 0  1.340529467032703 0.1794710788309493 0  1.440529467032703 0.07947107883094925 0  0.328482578588082 0.861302184907903 0  0.228482578588082 0.961302184907903 0  0.128482578588082 0.861302184907903 0  0.228482578588082 0.761302184907903 0  2.433715755666527 0.5671313263739527 0  2.333715755666527 0.6671313263739527 0  2.233715755666527 0.5671313263739527 0  2.333715755666527 0.4671313263739527 0  1.230126416042657 0.4719216314495289 0  1.130126416042657 0.5719216314495289 0  1.030126416042657 0.4719216314495289 0  1.130126416042657 0.3719216314495289 0  0.6116895212263961 0.1109717124183122 0  0.5116895212263961 0.2109717124183123 0  0.4116895212263961 0.1109717124183122 0  0.5116895212263961 0.01097171241831223 0  1.826399793314543 0.5107585635357751 0  1.726399793314543 0.6107585635357751 0  1.626399793314543 0.5107585635357751 0  1.726399793314543 0.4107585635357751 0  1.55211198904505 0.4715062703352436 0  1.45211198904505 0.5715062703352436 0  1.35211198904505 0.4715062703352436 0  1.45211198904505 0.3715062703352436 0  4.634586060050256 0.3908052747188366 0  4.534586060050256 0.4908052747188366 0  4.434586060050257 0.3908052747188366 0  4.534586060050256 0.2908052747188367 0  4.402298611127895 0.3855442737855176 0  4.302298611127895 0.4855442737855176 0  4.202298611127896 0.3855442737855176 0  4.302298611127895 0.2855442737855176 0  1.952879969939083 0.1350676669858752 0  1.852879969939083 0.2350676669858752 0  1.752879969939083 0.1350676669858752 0  1.852879969939083 0.03506766698587516 0  0.2569000568572125 0.624378330560713 0  0.1569000568572125 0.724378330560713 0  0.05690005685721253 0.624378330560713 0  0.1569000568572125 0.524378330560713 0  3.161687137399175 0.8244152317893645 0  3.061687137399175 0.9244152317893645 0  2.961687137399175 0.8244152317893645 0  3.061687137399175 0.7244152317893645 0  2.395032016636657 0.3643063846039553 0  2.295032016636657 0.4643063846039552 0  2.195032016636657 0.3643063846039553 0  2.295032016636657 0.2643063846039553 0  2.617463499593836 0.8856904558897764 0  2.517463499593836 0.9856904558897763 0  2.417463499593836 0.8856904558897764 0  2.517463499593836 0.7856904558897764 0  3.421102286656348 0.6813514212092414 0  3.321102286656348 0.7813514212092414 0  3.221102286656348 0.6813514212092414 0  3.321102286656348 0.5813514212092414 0  2.449787661472024 0.1680638375564639 0  2.349787661472024 0.2680638375564639 0  2.249787661472024 0.1680638375564639 0  2.349787661472024 0.06806383755646392 0  3.355617450537308 0.1968805330923727 0  3.255617450537307 0.2968805330923727 0  3.155617450537307 0.1968805330923727 0  3.255617450537307 0.09688053309237274 0  1.503825997254619 0.6923599081039139 0  1.403825997254619 0.7923599081039139 0  1.303825997254619 0.6923599081039139 0  1.403825997254619 0.5923599081039139 0  4.810628718351659 0.8986629234755887 0  4.710628718351659 0.9986629234755887 0  4.610628718351659 0.8986629234755887 0  4.710628718351659 0.7986629234755888 0  0.5404316710680832 0.8720628158042852 0  0.4404316710680832 0.9720628158042852 0  0.3404316710680833 0.8720628158042852 0  0.4404316710680832 0.7720628158042853 0  4.973460784063308 0.7469193359422902 0  4.873460784063308 0.8469193359422902 0  4.773460784063309 0.7469193359422902 0  4.873460784063308 0.6469193359422902 0  1.004252616630607 0.8231219524210824 0  0.9042526166306074 0.9231219524210824 0  0.8042526166306074 0.8231219524210824 0  0.9042526166306074 0.7231219524210825 0  0.28081752570913 0.1080256308500591 0  0.18081752570913 0.2080256308500591 0  0.08081752570912998 0.1080256308500591 0  0.18081752570913 0.008025630850059071 0  1.069684414289768 0.1432175458177037 0  0.9696844142897676 0.2432175458177037 0  0.8696844142897676 0.1432175458177037 0  0.9696844142897676 0.04321754581770368 0  2.027723889848873 0.4050114807802901 0  1.927723889848873 0.5050114807802901 0  1.827723889848873 0.4050114807802901 0  1.927723889848873 0.3
[...]
<PointData  Scalars="f_19"> 
<DataArray  type="Float64"  Name="f_19"  format="ascii">1.0000000000000000e+00  1.0000000000000000e+00  4.8011820829802012e-07  -5.1619824711013090e-02  8.8372527200325679e-01  9.2069339590289778e-01  9.3692006057005073e-01  9.1698797137433763e-01  8.7582031913873015e-01  9.0018953326087625e-01  9.1857982424897044e-01  7.5416197376328209e-01  1.0060042978752466e+00  1.0023305303078771e+00  1.0015917733807356e+00  1.0042721161234816e+00  -6.0751800763913934e-02  1.8789184776359581e-02  -1.0469680936524374e-02  -8.0940251683271104e-03  9.9899274569509966e-01  9.9954768603444111e-01  1.0001255102446236e+00  1.0004239666389625e+00  3.3494468647023529e-01  4.4785592534907026e-01  6.1321125605152371e-01  6.7353889136585821e-01  1.4308965259928721e-01  4.2910983072117298e-01  4.9092254373982441e-01  4.7276196043713831e-01  9.4473546925579766e-01  9.9987904397643557e-01  1.0003579860698535e+00  9.8074081841162641e-01  6.0092741690942642e-01  9.5067382048751359e-01  9.7699133839864671e-01  9.8027246157111037e-01  5.6874345556889605e-01  6.9937919217196787e-01  6.7423040750563046e-01  6.5442850723926116e-01  3.4930559893609525e-01  4.9340919939470113e-01  6.6924196337625175e-01  6.0115872981984464e-01  9.8417623184539060e-01  1.0098054981154287e+00  1.0070518666025290e+00  9.6393851550050491e-01  6.3195488946355560e-01  3.8673495681913028e-01  5.7051223240961391e-01  6.3898595666910929e-01  1.4342142955908566e-01  4.5162327559549903e-01  5.4792476223118125e-01  4.8870642139913029e-01  6.2177643285468709e-01  1.0380190956225126e+00  1.1132866947579136e+00  2.9245445464770908e-01  6.5494810728062638e-02  2.7786079011175133e-03  2.1012661827311265e-04  9.3244930814995769e-02  -9.5209020116563334e-03  -7.8478577419791473e-02  -1.1504461847989986e-02  -6.8560239277847923e-05  9.0414457629368639e-01  9.2530223874700834e-01  9.4134531500950780e-01  9.3052205880134053e-01  9.5731735976101329e-01  9.5489885714688560e-01  9.5642359249244968e-01  9.1236973036373270e-01  -1.6012232519258553e-03  6.2929442656146320e-04  8.8804276964870199e-05  6.1724683412875021e-02  1.0110046141680056e+00  1.0265134493910830e+00  1.0052763155623949e+00  1.0052420770407844e+00  7.4424950268829337e-01  2.5628350994829036e-01  7.1047535186220045e-01  8.7429300074142013e-01  9.9948695277024735e-01  9.9961787896815213e-01  9.9900279401824410e-01  9.9929929816531304e-01  1.5130705595769442e-02  -9.7807649684238926e-02  2.1967342684095646e-02  1.3325264975821555e-02  -9.9914829767784562e-03  1.8230356622129468e-01  1.4356760425552076e-01  4.3349162189835191e-03  9.6688180399739510e-01  8.3159472633011233e-01  1.1078009772292225e+00  9.7487253614493741e-01  7.1122777288706285e-01  2.2415482698154257e-01  8.1746552923629667e-01  8.8094183467269116e-01  3.3897096161030388e-01  5.8201605046711681e-03  2.2821207541008948e-01  6.8902930128027373e-01  2.4727804971090495e-01  1.8657346642690687e-02  -6.4769998749423532e-02  3.4586642203271512e-01  -1.2178414304524784e-02  -6.6246700372124059e-03  -1.1243223166596174e-02  2.7004272908728801e-03  2.0516087171934382e-02  2.4034169810808353e-01  5.2395970708514076e-03  4.6117942335940110e-01  3.3458950803642515e-04  3.7776645838605245e-02  7.1205239007850918e-02  1.4352467182863518e-01  1.0565137099869690e+00  1.0060227476562678e+00  1.0014847834990008e+00  1.0008630173351232e+00  4.5094006999797615e-01  3.3196063629268818e-01  4.9851228242658002e-01  7.0616046950650035e-01  9.9033856423707278e-01  9.8128444951057769e-01  1.0182445650822434e+00  1.0005928288899706e+00  5.3475103802195334e-01  7.7582698377852843e-01  5.8931874005607517e-02  -7.9217589771126678e-03  1.0045923560722081e+00  1.0032916249831527e+00  1.0041555147239183e+00  1.0038930259185561e+00  7.9046642411874990e-01  9.9773636051947923e-01  9.9528445228258478e-01  9.9947395065243527e-01  7.5289333973840733e-01  7.3452782400874561e-01  7.8090601512456903e-01  6.6739371716162865e-01  8.1550504397307511e-01  1.0053730683026585e+00  1.0029655326943778e+00  1.0043015849662393e+00  9.3927842255866001e-01  9.7798351504977454e-01  2.2389511462184522e-01  5.2983964162609098e-03  9.5752917977794549e-01  5.4267677486256127e-01  8.8201553942666977e-01  9.7026741161686092e-01  9.3000343385503637e-01  6.6265200194958185e-01  7.7977526608156644e-01  9.6880320486541671e-01  8.0315872944214650e-01  6.8974594883362716e-01  8.0130243994533135e-01  8.2690112173986496e-01  8.5434955131004253e-01  6.5097649109594091e-01  7.7393054992942223e-01  8.4241000028218205e-01  9.8070060752116672e-01  9.6774528760990697e-01  9.7084268440458177e-01  1.0458410684901109e+00  9.9766742961507937e-01  1.0015476111256296e+00  9.9964428079909307e-01  9.9969549236129118e-01  -3.5412728727486846e-02  7.9571816287810637e-01  8.7112825616744138e-01  8.6633149165391943e-01  -7.1166442437296931e-02  7.2388295094866195e-01  9.6031791803242839e-01  3.3726551731747673e-01  8.3469187442743831e-01  6.2512101369364292e-01  6.1374705528937012e-01  8.1028010557632979e-01  3.7683981611747547e-02  -1.1848693575983947e-02  4.0141312209839347e-01  1.0789283922273254e+00  7.4393658018740982e-01  1.8941354351679596e-01  6.5398722544440824e-01  8.2346955722898640e-01  5.9793467119401211e-01  7.2233289911351506e-01  5.0134449822352578e-01  5.5393986978463143e-02  1.0408444023765278e+00  1.0282077903550655e+00  1.0147759269668553e+00  1.1198649103721849e+00  -1.1376263927287066e-03  -1.1761050244471272e-06  -4.0088899459587773e-03  -1.0129200253307483e-01  1.0076037270092779e+00  9.7326780860751305e-01  7.3033293242762776e-01  1.0189867069092648e+00  -3.7185867327983817e-03  -5.0256172753647931e-04  -8.4281539984708609e-02  -8.5341870670216313e-02  4.5609509272807947e-01  1.0069449366075418e+00  1.0206719704627167e+00  1.8980523665630890e-02  -2.2119048380193179e-01  9.9962871255647368e-01  9.9981119286830056e-01  1.0000060411810596e+00  9.7232187700993344e-01  9.9398359236254141e-01  9.9232832111220803e-01  1.0362864117324353e+00  8.9008829842287851e-01  1.0854166771812124e+00  1.0136088516534336e+00  1.0140638011527956e+00  9.9550528479759248e-01  9.8562405904379335e-01  1.0005518294803639e+00  9.8475094065420354e-01  9.7707265212804961e-01  1.0505527606566611e+00  1.0260428912115240e+00  1.0152285253311142e+00  8.9958027961780751e-01  -7.8244550508611177e-02  8.0164798239985491e-01  9.5351171202021545e-01  5.0427762321583525e-01  6.9176134769056286e-01  7.0241113661511434e-01  2.3856828209461442e-01  5.0943455806387601e-02  8.0108286876546186e-04  -3.7603416289737064e-03  -1.7176784322577845e-03  6.2457212188985610e-02  3.4602028837881230e-02  -4.3831885860440827e-03  7.3981988779460515e-04  -2.6774326382715780e-02  2.8356527656305830e-01  4.9548157169634649e-01  3.2823519518763328e-01  1.0000000000000000e+00  1.0000000000000000e+00  1.0000000000000000e+00  1.0000000000000000e+00  1.0000000000000000e+00  1.0000000000000000e+00  1.0000000000000000e+00  1.0000000000000000e+00  1.0000000000000000e+00  1.0000000000000000e+00  1.0000000000000000e+00  1.0000000000000000e+00  1.0000000000000000e+00  1.0000000000000000e+00  1.0000000000000000e+00  1.0000000000000000e+00  1.0000000000000000e+00  1.0000000000000000e+00  1.0000000000000000e+00  1.0000000000000000e+00  1.0000000000000000e+00  1.0000000000000000e+00  1.0000000000000000e+00  1.0000000000000000e+00  1.0000000000000000e+00  1.0000000000000000e+00  1.0000000000000000e+00  1.0000000000000000e+00  1.0000000000000000e+00  9.9998197498707619e-01  9.9994675526703347e-01  9.9989531975446599e-01  9.9973334580464779e-01  9.9942289085307201e-01  9.9888648196919738e-01  9.9795541997638870e-01  9.9648656168520422e-01  9.9537310332065987e-01  9.9504171084479198e-01  1.0018290831816614e+00  1.0220696854604290e+00  1.0151790867103765e+00  1.0148931636501370e+00  1.0174511580988528e+00  1.0192261473417588e+00  1.0232074448519748e+00  1.0279112211525183e+00  1.0282099272284229e+00  1.0256007629227479e+00  1.0233741939739598e+00  1.0153661355874437e+00  1.0137678753320905e+00  1.0113731221365745e+00  1.0052397235901682e+00  1.0042417144666351e+00  1.0010497216923551e+00  1.0000939609229711e+00  1.0003991021158740e+00  1.0008585340832086e+00  1.0027034998561863e+00  1.0061154684433924e+00  1.0031683147637915e+00  1.0021640187590868e+00  1.0020327421068560e+00  1.0010748743434217e+00  1.0020559139111773e+00  1.0022754296223260e+00  1.0036771279199304e+00  1.0044788684009320e+00  1.0018458712075171e+00  9.9721844231666901e-01  9.8354137163206223e-01  9.7749306946150838e-01  9.6134308549253156e-01  9.6098931737443238e-01  9.6808555909185690e-01  9.7134820865416560e-01  9.8999908577533291e-01  9.9065055250907497e-01  9.8999870860938566e-01  9.9073262013961760e-01  9.8709405137301676e-01  9.8395873770021647e-01  9.8029151987249141e-01  9.7731290086084066e-01  9.7959789232350514e-01  9.8266927459293596e-01  9.9327804363742112e-01  9.9227594899130878e-01  9.9157724113072776e-01  9.9080859321210069e-01  9.9028086509308477e-01  9.8833773371110478e-01  9.8177824321558049e-01  9.6041219704066194e-01  9.2608145252649776e-01  9.1867268184472251e-01  9.0382086879542622e-01  8.8474995874185758e-01  8.4911429033301489e-01  7.7383356073551801e-01  7.1496659086628334e-01  6.5692576786643064e-01  6.2203614017493003e-01  5.8305208338670733e-01  5.1084183940825745e-01  3.8603415682847775e-01  7.1093447072389529e-02  -1.4347365879033766e-01  -8.3387191902093483e-02  -2.0605665068876403e-02  3.0105156287716643e-02  2.0157610919625559e-02  7.3098524953962261e-03  -7.0385462214203670e-03  -5.0997292199978110e-02  -2.8728598760526518e-02  2.2967470658166598e-02  4.7844504455748949e-02  7.7522291937559815e-02  1.1539045863752269e-01  1.4572392092881725e-01  1.7282811422584834e-01  1.7780285522157369e-01  2.5446397268481286e-01  3.9701262413139332e-01  4.1498160865530659e-01  3.6332607664696043e-01  3.5809688348151775e-01  3.1050018928423745e-01  2.4865195657192568e-01  1.6850242287571771e-01  6.7104159239040784e-02  -2.9171529350404952e-03  -1.8775385398486177e-02  -3.0025817901820781e-02  -2.9001822911441936e-02  -2.5239138914096262e-02  -2.2501294373438389e-02  -1.4587833560517099e-02  -4.6005225123799632e-03  -1.9704766730479512e-03  -1.0291688433965191e-03  1.0271851952417633e-04  8.3333596946362574e-04  6.6178743232024899e-04  5.7689306325377037e-04  4.6916087518908574e-04  3.2218698246489153e-04  2.3318333450020150e-04  5.9004865275571713e-04  -1.0488308019780891e-03  -1.3919616655268854e-02  -1.2717852903992100e-02  -5.0998625897919828e-03  7.8754219487557221e-03  1.0331127923673291e-02  1.0707601091820711e-02  8.8967103731341420e-03  5.7333220066183646e-03  2.7864853285648581e-03  2.6885937107205924e-04  -4.8302806657305879e-04  -1.5234909441243268e-04  1.5272952018127728e-04  9.0512855590302522e-05  -9.0252465262943270e-06  2.0965408090178244e-05  1.1385481314933710e-05  8.5360216152916362e-06  -9.4238784649739739e-06  1.3587870037607789e-05  5.3106483577856540e-05  -9.8842434126879285e-06  1.4692080123990521e-05  -3.6566020412077453e-05  1.5662079970999817e-05  -1.6655769185482526e-06  -3.0644495989808990e-07  -3.5982384549152647e-07  -6.6456670277897827e-07  -8.2738409045938027e-07  -5.9386141022311391e-06  3.0406152676496171e-05  2.8640217542278308e-03  2.1095774140310677e-02  -6.4132911370447326e-02  2.6766978963512360e-02  2.4415361655084158e-01  4.7123633994999425e-01  6.4069300530464945e-01  6.9102309898651493e-01  6.3369901792463479e-01  5.5898695235061457e-01  4.8394940964766708e-01  4.0511550012870673e-01  1.3971410377886068e-01  2.6834028424934792e-01  2.7338343109779900e-01  4.0113347547716373e-02  2.1366557075369716e-01  3.6029686389590282e-01  3.8956625087193497e-01  3.6069503606962733e-01  3.0053036022223251e-01  1.9446671480937411e-01  6.0627275816364005e-02  1.0000479444784869e+00  1.0000258055432791e+00  9.9915217257599342e-01  9.9917483666282469e-01  9.9929396892889710e-01  9.9644686541896399e-01  9.7810204392966471e-01  9.3057096283486640e-01  5.6170598888823897e-01  -9.3733856218314787e-02  -7.6011151466416210e-02  9.9037231734819334e-03  6.9961845064573647e-03  4.3255968822536644e-03  2.3725973098247437e-03  -2.4772397168898804e-03  -1.8837668887529527e-02  -4.0624121449144589e-02  -1.1635018397115890e-01  -3.7951639308597801e-01  -2.4167774217264268e-01  -1.0132766231394030e-01  -3.1095959634908376e-03  9.7006119531716742e-02  2.2632315781977994e-01  3.1610189773048086e-01  5.1602315580103830e-01  5.6967941474367045e-01  6.1236891301863106e-01  6.2574631242968226e-01  6.6898988588861497e-01  6.4573901772349063e-01  6.2875449630418490e-01  6.2774267405717177e-01  6.3256488099273844e-01  6.3365238397742851e-01  6.1890412791026250e-01  5.8982357080656145e-01  5.7273179744553238e-01  5.8665449216091847e-01  6.0796036409457166e-01  6.3756350810556683e-01  6.5598580126441064e-01  6.6812285174134767e-01  6.5317064692310001e-01  6.3456298524502308e-01  6.0100883560371465e-01  5.6606617314011742e-01  5.3344516523596264e-01  5.1440679032268843e-01  5.1328460454967118e-01  5.3167964884822971e-01  5.9132413459569222e-01  6.3619447597023671e-01  7.0899175449599749e-01  7.1287015216739913e-01  7.1777677057802869e-01  6.9056930847932985e-01  6.5913090148618658e-01  6.3373289480837136e-01  6.1507517897764286e-01  5.9725931548709732e-01  5.6930308196388191e-01  5.3332195254750769e-01  4.9712534005205028e-01  4.7467085789094726e-01  4.7178979010168215e-01  4.8966311003841156e-01  5.0872930775776182e-01  5.2171516471295087e-01  5.2606134238193247e-01  5.1160287950229544e-01  4.9031474688221888e-01  4.5090689055923383e-01  4.3263671808019505e-01  4.6498285376255927e-01  4.4604123210065583e-01  4.4553801682311678e-01  4.2937878256544088e-01  3.8955445657989590e-01  3.3022481845201118e-01  2.7641238665012430e-01  2.7291757598894961e-01  3.1339181768628044e-01  4.3940949752945396e-01  4.7731868243347608e-01  4.5485729617330367e-01  4.3878629104846301e-01  3.8083090031810918e-01  2.8901333798872925e-01  1.9080993628737225e-01  1.0192779701613566e-01  3.5246850181162040e-02  -1.2965596212709707e-02  -2.7907366420733114e-02  5.8077035972054127e-03  6.9224907120334675e-04  3.0113050817292708e-02  7.9662305839145377e-03  -1.1490424811353907e-02  -2.6291389637287863e-02  -2.1873622367699606e-02  -1.6369590363440756e-02  -5.1268090471924856e-03  2.8197152676131677e-03  -1.5350752564154244e-03  1.2015162385504123e-05  -1.3714819133778524e-04  2.8231610939085819e-06  1.1416139367150194e-06  1.1887952337276491e-06  5.9394505707105621e-05  3.5354273168597709e-04  4.1416038841356260e-04  7.0780837273953304e-05  -1.0313131105156334e-04  7.4373631021590558e-05  -1.3579107363524141e-03  -1.8943823972581866e-03  -2.7612737437430041e-03  -3.5051794100367816e-03  -5.2424273853242278e-04  4.2100949171028825e-03  4.0521013593884520e-03  2.4849023450379737e-03  1.3245312602037146e-03  1.6241524731832376e-03  1.6542507834953714e-03  2.8021787154781535e-03  2.6058021191812377e-03  2.4121466882312892e-03  2.1870500565588855e-03  1.5270608688945553e-03  8.1081237554862817e-04  4.7060770223954522e-04  5.3286139121610880e-04  2.0265196194977261e-04  -4.6378086954333253e-04  -2.0333389713293355e-03  -1.1914774838001255e-02  -4.7203048413382354e-02  -3.7613557820985612e-02  -6.6162862580691623e-02  -5.5785644050360524e-02  -4.9671349232849403e-02  -4.5975487275247556e-02  -4.4320847558467574e-02  -4.4453841473562426e-02  -4.4847414844147511e-02  8.8946217033158892e-01  8.9248870507791134e-01  8.9695106440766614e-01  9.1348136300493565e-01  9.2222421998943072e-01  9.2736463735977370e-01  9.2929864945581742e-01  9.3806704787476103e-01  9.3285386300630602e-01  9.2954980316175628e-01  9.2514212634218784e-01  9.2256522484757797e-01  9.0907033308043350e-01  9.0280712263334817e-01  8.9231807142239083e-01  8.7044922343352604e-01  8.8879967270531923e-01  8.9149652027152948e-01  8.9070858366348016e-01  8.9515835812936217e-01  9.0435124799823785e-01  9.1034968445457476e-01  9.1370767344560677e-01  9.1382155900635431e-01  9.0403616070471382e-01  8.8171186731408624e-01  8.0402953858945458e-01  7.5554557658167409e-01  7.6854599124276224e-01  8.0528723952406278e-01  8.0214617109923902e-01  8.2500117496034131e-01  1.0054615049763498e+00  1.0026004226827476e+00  1.0021477048315051e+00  1.0024552187887290e+00  1.0017623858568714e+00  1.0015845580914875e+00  1.0015081954489431e+00  1.0015072790091328e+00  1.0021939077067934e+00  1.0031916097838240e+00  1.0034866983036399e+00  1.0038236044566009e+00  1.0052093935273856e+00  1.0056180795461380e+00  1.0050281447618175e+00  1.0052773088169964e+00  5.3907535813531070e-03  1.3441733194489991e-02  1.7596070081993570e-02  1.7858257318630451e-02  2.2459325593432281e-02  2.2268880338728522e-02  2.1717013459071639e-02  2.6074457609063808e-03  -1.1759127737001057e-02  -1.0812575482583007e-03  4.9463366318600313e-03  2.0860126265054985e-03  -3.8717142014351745e-02  -1.3142924543560394e-01  -7.5962537616942896e-02  -7.7511832718994533e-02  9.9831352975339505e-01  9.9803394160448866e-01  9.9908689088838298e-01  9.9969723859900972e-01  9.9937114743367528e-01  9.9933532392110613e-01  1.0004964059780204e+00  1.0001652715727163e+00  1.0001449689929633e+00  1.0002520057231781e+00  1.0005714126175613e+00  1.0010651422983272e+00  9.9906408968419746e-01  9.9887781268811604e-01  9.9903292135697841e-01  9.9909890170486138e-01  3.9433021221363940e-01  4.2323233765908891e-01  4.3707974250152520e-01  4.3750677099894264e-01  4.6738891515341929e-01  5.1583078265228965e-01  5.5767168024923586e-01  5.9992662480950920e-01  6.1741912498002716e-01  6.5825488790311537e-01  7.0608769171601016e-01  6.9151075320821720e-01  6.3417798215015753e-01  5.9754838312484759e-01  5.8469069310890087e-01  5.4607603601994681e-01  3.2760036321724684e-01  3.8836007092850061e-01  4.1041434455124970e-01  4.2290444885528738e-01  4.3383004975420919e-01  4.4808205635198883e-01  4.6444405427918350e-01  4.7794189720463642e-01  4.8536907748862501e-01  4.7725946543738579e-01  4.7386711265173542e-01  4.7001510545911296e-01  4.6259943952234128e-01  4.3436670164724106e-01  3.5288109962716102e-01  1.6589702279545437e-01  9.6362926979526209e-01  9.7365404417871904e-01  9.8473326008903450e-01  9.9510566838815417e-01  1.0016938176290924e+00  1.0021327379892540e+00  9.9927221516807307e-01  9.9691136233195343e-01  9.9135201074879264e-01  9.8809943864861338e-01  9.8423708045769642e-01  9.8118568135680428e-01  9.8378891280859804e-01  9.7424853273221645e-01  8.9942064808669275e-01  9.2843234216337178e-01  7.1459528961799568e-01  7.9210392491529324e-01  8.9350664266971991e-01  9.3971434645884688e-01  9.6246747931108911e-01  9.6541098343176091e-01  9.7474595755838256e-01  9.7764314487280224e-01  9.7483686490738763e-01  9.7209423458713839e-01  9.7394397278099054e-01  9.8272286000778453e-01  9.7798919186452193e-01  9.7551159210554039e-01  8.2601049562226614e-01  4.8048577350871613e-01  6.0776588054259306e-01  6.2185430280513332e-01  6.1714529468879264e-01  6.5625104340923257e-01  7.2332490526353888e-01  7.2230260948318714e-01  6.9802193251228650e-01  6.8471453044356023e-01  6.6117402841443917e-01  7.2217007361406937e-01  7.0496645331451668e-01  7.0759736976372678e-01  6.5776920167102115e-01  6.3217398884189635e-01  5.9993220617190923e-01  4.8665411243755147e-01  4.0529804312879081e-01  4.2662728476999712e-01  4.4054329100438705e-01  4.5006026524514386e-01  5.8216285882240448e-01  6.7273376270672713e-01  6.6968583995646214e-01  6.7766713813919066e-01  6.4024158635902451e-01  6.0532316515574325e-01  5.4136146056076562e-01  4.8987488028246728e-01  6.0345045769465688e-01  5.3201035014165943e-01  5.1834401904029770e-01  4.9954621588949344e-01  1.0175920707836088e+00  1.0184666695084719e+00  1.0187542977106825e+00  1.0118170280176673e+00  1.0096087416841164e+00  1.0088515722962539e+00  1.0075880977434688e+00  1.0069929038636825e+00  1.0076374828021364e+00  1.0072452712455280e+00  1.0083389544894434e+00  1.0044144607414656e+00  6.2104005740843760e-01  1.5562565383690277e-01  -1.1524643438272040e-02  5.7703604534507735e-01  3.8832387556611142e-01  3.359