<?xml version="1.0"?>
<VTKFile type="UnstructuredGrid"  version="0.1"  >
<UnstructuredGrid>
<Piece  NumberOfPoints="4448" NumberOfCells="7310">
<Points>
<DataArray  type="Float64"  NumberOfComponents="3"  format="ascii">0 0 0  0 1 0  5 1 0  5 0 0  2.685965962967975 0.6199970297988864 0  2.585965962967975 0.7199970297988864 0  2.485965962967974 0.6199970297988864 0  2.585965962967975 0.5199970297988864 0  2.887457126027364 0.718961842035438 0  2.787457126027364 0.818961842035438 0  2.687457126027364 0.718961842035438 0  2.787457126027364 0.618961842035438 0  0.8769895867556056 0.290401976457433 0  0.7769895867556056 0.390401976457433 0  0.6769895867556056 0.290401976457433 0  0.7769895867556056 0.190401976457433 0  4.376177735165038 0.8808430758872411 0  4.276177735165039 0.9808430758872411 0  4.176177735165039 0.8808430758872411 0  4.276177735165039 0.7808430758872411 0  0.6141057752375989 0.3768652333524785 0  0.5141057752375989 0.4768652333524784 0  0.4141057752375989 0.3768652333524785 0  0.5141057752375989 0.2768652333524785 0  4.630582754177703 0.6406480284476114 0  4.530582754177703 0.7406480284476114 0  4.430582754177704 0.6406480284476114 0  4.530582754177703 0.5406480284476114 0  4.896214045309746 0.4187630456168357 0  4.796214045309746 0.5187630456168357 0  4.696214045309747 0.4187630456168357 0  4.796214045309746 0.3187630456168358 0  2.155589080094151 0.2204087294390689 0  2.055589080094151 0.320408729439069 0  1.955589080094151 0.2204087294390689 0  2.055589080094151 0.1204087294390689 0  2.404826935341426 0.8737119164346264 0  2.304826935341426 0.9737119164346264 0  2.204826935341426 0.8737119164346264 0  2.304826935341426 0.7737119164346264 0  2.964213492896404 0.1174061699058604 0  2.864213492896404 0.2174061699058604 0  2.764213492896404 0.1174061699058604 0  2.864213492896404 0.01740616990586039 0  3.582837128300153 0.298032837113745 0  3.482837128300153 0.3980328371137449 0  3.382837128300153 0.298032837113745 0  3.482837128300153 0.1980328371137449 0  0.8088212649691964 0.7502337282029031 0  0.7088212649691964 0.8502337282029031 0  0.6088212649691964 0.7502337282029031 0  0.7088212649691964 0.6502337282029031 0  4.223801910336278 0.5002442229252277 0  4.123801910336279 0.6002442229252277 0  4.023801910336279 0.5002442229252277 0  4.123801910336279 0.4002442229252278 0  4.922353386628925 0.2017240624096503 0  4.822353386628925 0.3017240624096503 0  4.722353386628925 0.2017240624096503 0  4.822353386628925 0.1017240624096503 0  2.206072007496676 0.5374870999379825 0  2.106072007496676 0.6374870999379825 0  2.006072007496676 0.5374870999379825 0  2.106072007496676 0.4374870999379825 0  4.32315537674505 0.6819384234094167 0  4.22315537674505 0.7819384234094167 0  4.123155376745051 0.6819384234094167 0  4.22315537674505 0.5819384234094167 0  3.715487240450959 0.1001729247534523 0  3.615487240450959 0.2001729247534523 0  3.515487240450959 0.1001729247534523 0  3.615487240450959 0.0001729247534522776 0  1.763896808309352 0.814597031442381 0  1.663896808309352 0.914597031442381 0  1.563896808309352 0.814597031442381 0  1.663896808309352 0.7145970314423811 0  2.134954894404413 0.8503736436135857 0  2.034954894404413 0.9503736436135857 0  1.934954894404413 0.8503736436135857 0  2.034954894404413 0.7503736436135857 0  4.032081200799731 0.8883073324077129 0  3.932081200799732 0.9883073324077128 0  3.832081200799732 0.8883073324077129 0  3.932081200799732 0.7883073324077129 0  1.720272337623273 0.315263346238785 0  1.620272337623273 0.415263346238785 0  1.520272337623273 0.315263346238785 0  1.620272337623273 0.215263346238785 0  2.849341852368551 0.3377485432764519 0  2.749341852368551 0.4377485432764519 0  2.649341852368551 0.3377485432764519 0  2.749341852368551 0.2377485432764519 0  0.353954769751299 0.3076959497508149 0  0.253954769751299 0.4076959497508149 0  0.153954769751299 0.3076959497508149 0  0.253954769751299 0.2076959497508149 0  4.220679522741156 0.1330663414655305 0  4.120679522741156 0.2330663414655305 0  4.020679522741156 0.1330663414655305 0  4.120679522741156 0.03306634146553053 0  4.03846295264503 0.2615603127259356 0  3.93846295264503 0.3615603127259356 0  3.83846295264503 0.2615603127259356 0  3.93846295264503 0.1615603127259356 0  1.258185597494404 0.7951208458533302 0  1.158185597494404 0.8951208458533302 0  1.058185597494404 0.7951208458533302 0  1.158185597494404 0.6951208458533302 0  2.66756980469976 0.2103205042379263 0  2.567569804699759 0.3103205042379263 0  2.467569804699759 0.2103205042379263 0  2.567569804699759 0.1103205042379263 0  3.066183082511723 0.4648897272298002 0  2.966183082511723 0.5648897272298001 0  2.866183082511723 0.4648897272298002 0  2.966183082511723 0.3648897272298002 0  3.876160132013113 0.5302140905286264 0  3.776160132013113 0.6302140905286264 0  3.676160132013113 0.5302140905286264 0  3.776160132013113 0.4302140905286265 0  4.435786682356577 0.1191533144960393 0  4.335786682356577 0.2191533144960393 0  4.235786682356578 0.1191533144960393 0  4.335786682356577 0.01915331449603927 0  3.657464697025493 0.6000278738124513 0  3.557464697025493 0.7000278738124512 0  3.457464697025493 0.6000278738124513 0  3.557464697025493 0.5000278738124513 0  3.695085226088024 0.8183916024406818 0  3.595085226088024 0.9183916024406817 0  3.495085226088024 0.8183916024406818 0  3.595085226088024 0.7183916024406818 0  0.6716618480696921 0.5839650746876788 0  0.5716618480696921 0.6839650746876788 0  0.4716618480696921 0.5839650746876788 0  0.5716618480696921 0.4839650746876788 0  3.384667051383998 0.4223896768935983 0  3.284667051383998 0.5223896768935983 0  3.184667051383998 0.4223896768935983 0  3.284667051383998 0.3223896768935983 0  1.283504513865784 0.1674438639117045 0  1.183504513865784 0.2674438639117045 0  1.083504513865784 0.1674438639117045 0  1.183504513865784 0.06744386391170451 0  3.360557185844586 0.8746680565940553 0  3.260557185844585 0.9746680565940553 0  3.160557185844585 0.8746680565940553 0  3.260557185844585 0.7746680565940554 0  1.540529467032703 0.1794710788309493 0  1.440529467032703 0.2794710788309492 0  1.340529467032703 0.1794710788309493 0  1.440529467032703 0.07947107883094925 0  0.328482578588082 0.861302184907903 0  0.228482578588082 0.961302184907903 0  0.128482578588082 0.861302184907903 0  0.228482578588082 0.761302184907903 0  2.433715755666527 0.5671313263739527 0  2.333715755666527 0.6671313263739527 0  2.233715755666527 0.5671313263739527 0  2.333715755666527 0.4671313263739527 0  1.230126416042657 0.4719216314495289 0  1.130126416042657 0.5719216314495289 0  1.030126416042657 0.4719216314495289 0  1.130126416042657 0.3719216314495289 0  0.6116895212263961 0.1109717124183122 0  0.5116895212263961 0.2109717124183123 0  0.4116895212263961 0.1109717124183122 0  0.5116895212263961 0.01097171241831223 0  1.826399793314543 0.5107585635357751 0  1.726399793314543 0.6107585635357751 0  1.626399793314543 0.5107585635357751 0  1.726399793314543 0.4107585635357751 0  1.55211198904505 0.4715062703352436 0  1.45211198904505 0.5715062703352436 0  1.35211198904505 0.4715062703352436 0  1.45211198904505 0.3715062703352436 0  4.634586060050256 0.3908052747188366 0  4.534586060050256 0.4908052747188366 0  4.434586060050257 0.3908052747188366 0  4.534586060050256 0.2908052747188367 0  4.402298611127895 0.3855442737855176 0  4.302298611127895 0.4855442737855176 0  4.202298611127896 0.3855442737855176 0  4.302298611127895 0.2855442737855176 0  1.952879969939083 0.1350676669858752 0  1.852879969939083 0.2350676669858752 0  1.752879969939083 0.1350676669858752 0  1.852879969939083 0.03506766698587516 0  0.2569000568572125 0.624378330560713 0  0.1569000568572125 0.724378330560713 0  0.05690005685721253 0.624378330560713 0  0.1569000568572125 0.524378330560713 0  3.161687137399175 0.8244152317893645 0  3.061687137399175 0.9244152317893645 0  2.961687137399175 0.8244152317893645 0  3.061687137399175 0.7244152317893645 0  2.395032016636657 0.3643063846039553 0  2.295032016636657 0.4643063846039552 0  2.195032016636657 0.3643063846039553 0  2.295032016636657 0.2643063846039553 0  2.617463499593836 0.8856904558897764 0  2.517463499593836 0.9856904558897763 0  2.417463499593836 0.8856904558897764 0  2.517463499593836 0.7856904558897764 0  3.421102286656348 0.6813514212092414 0  3.321102286656348 0.7813514212092414 0  3.221102286656348 0.6813514212092414 0  3.321102286656348 0.5813514212092414 0  2.449787661472024 0.1680638375564639 0  2.349787661472024 0.2680638375564639 0  2.249787661472024 0.1680638375564639 0  2.349787661472024 0.06806383755646392 0  3.355617450537308 0.1968805330923727 0  3.255617450537307 0.2968805330923727 0  3.155617450537307 0.1968805330923727 0  3.255617450537307 0.09688053309237274 0  1.503825997254619 0.6923599081039139 0  1.403825997254619 0.7923599081039139 0  1.303825997254619 0.6923599081039139 0  1.403825997254619 0.5923599081039139 0  4.810628718351659 0.8986629234755887 0  4.710628718351659 0.9986629234755887 0  4.610628718351659 0.8986629234755887 0  4.710628718351659 0.7986629234755888 0  0.5404316710680832 0.8720628158042852 0  0.4404316710680832 0.9720628158042852 0  0.3404316710680833 0.8720628158042852 0  0.4404316710680832 0.7720628158042853 0  4.973460784063308 0.7469193359422902 0  4.873460784063308 0.8469193359422902 0  4.773460784063309 0.7469193359422902 0  4.873460784063308 0.6469193359422902 0  1.004252616630607 0.8231219524210824 0  0.9042526166306074 0.9231219524210824 0  0.8042526166306074 0.8231219524210824 0  0.9042526166306074 0.7231219524210825 0  0.28081752570913 0.1080256308500591 0  0.18081752570913 0.2080256308500591 0  0.08081752570912998 0.1080256308500591 0  0.18081752570913 0.008025630850059071 0  1.069684414289768 0.1432175458177037 0  0.9696844142897676 0.2432175458177037 0  0.8696844142897676 0.1432175458177037 0  0.9696844142897676 0.04321754581770368 0  2.027723889848873 0.4050114807802901 0  1.927723889848873 0.5050114807802901 0  1.827723889848873 0.4050114807802901 0  1.927723889848873 0.3
[...]
<PointData  Scalars="f_1325"> 
<DataArray  type="Float64"  Name="f_1325"  format="ascii">1.0000000000000000e+00  1.0000000000000000e+00  -1.6895247575737373e-08  -2.8458227558061353e-02  7.8408279216775578e-01  8.6794269803361745e-01  8.9726009904827764e-01  8.4907393166002554e-01  7.7679006635058523e-01  8.2509516907820568e-01  8.4831762472016092e-01  5.6189541948941857e-01  1.0096286591667707e+00  1.0035378183768231e+00  1.0021444664655470e+00  1.0072593787573265e+00  -2.4768687483548157e-02  3.7083596727481541e-03  -4.1219530547156628e-03  -4.2966387879718538e-03  9.9828447011391874e-01  9.9949842746671946e-01  9.9987806507057031e-01  1.0002802627460534e+00  1.2547050655741837e-01  2.2886872487311002e-01  3.9346950784940121e-01  4.6693209149100467e-01  4.6298572735704362e-02  2.8765028876833071e-01  3.5388443883643866e-01  3.3424053377005425e-01  8.3321564846879959e-01  9.8628965501515287e-01  9.8973842527855083e-01  9.4433661354711063e-01  3.6750817424414822e-01  8.5924942552218464e-01  9.2466118157308175e-01  9.2415715896343997e-01  3.5784310213532294e-01  5.7775888006951848e-01  5.5476988124730719e-01  5.3654264704401911e-01  1.1893584427238192e-01  2.4325999103208742e-01  4.4758542021967507e-01  3.0658705261507840e-01  9.3727156326143601e-01  1.0179508163757354e+00  1.0151277055113512e+00  9.4526897613447514e-01  4.9052007137116882e-01  1.9702491374996603e-01  4.3658074691445636e-01  5.1964164742451058e-01  4.7030519700723632e-02  3.1237240356886736e-01  4.0526922733048654e-01  3.4400977373369457e-01  4.8984132792501067e-01  9.7647263254144723e-01  1.0718891060872644e+00  1.6294569857701593e-01  1.1734176225499503e-02  1.6510493978841363e-04  3.3507968618776336e-03  3.0704373077786447e-03  -1.4381524797315434e-03  -4.8067791726046576e-02  -2.2419562782491046e-03  -1.4135131213464647e-05  8.6219673158663390e-01  8.9686067071014097e-01  9.1771100483168855e-01  8.9281684535934824e-01  9.4857787673446647e-01  9.4286105917899132e-01  9.4346939849488820e-01  8.8385924528600512e-01  -5.1295085364093185e-03  3.8633605246196383e-05  6.2987907863438369e-05  3.8345724497865719e-02  1.0163399603277714e+00  1.0548244632891060e+00  1.0110971753523490e+00  1.0117997503444318e+00  4.8670738681620895e-01  4.4116154584822209e-02  4.3452924052337172e-01  6.6794754858470073e-01  9.9945537772661008e-01  9.9954857556771093e-01  9.9889139932834126e-01  9.9881204058423567e-01  8.5618442148185647e-03  -9.5677285563491324e-02  8.4319509708822703e-04  1.1658056945106038e-03  -8.4303288654022646e-02  4.1622829525572334e-03  1.3192158069275628e-02  -9.2110341939581186e-03  9.3881895234002033e-01  7.7822948867640640e-01  1.0709794619714290e+00  9.4094013191742987e-01  4.3546149709805154e-01  6.6356755226782485e-02  5.9689244152554222e-01  6.9131411361085560e-01  1.3221694894606570e-01  -1.0870996076978946e-01  7.7785219722997220e-02  4.4017263471931339e-01  1.6396241790286620e-01  4.9154020029941502e-03  -7.0054477226455275e-02  2.9042567573449962e-01  -1.4951039153386679e-02  -8.2676888267592952e-02  -9.7619140689912849e-03  1.6465013692999381e-04  3.5102823687718230e-03  9.1189861726121396e-02  -1.2697023056589343e-01  3.7871489406708925e-01  4.3775113696780852e-05  2.5427309751209293e-03  2.2781303848348508e-03  5.2363023194907835e-02  1.0808514164370731e+00  1.0143664274280040e+00  1.0036905970208549e+00  1.0007775455443688e+00  2.2797761685343271e-01  1.4015113975479987e-01  2.4994346273490708e-01  4.9436277389644034e-01  9.8233015341844643e-01  9.7247549794044275e-01  9.8420087603015816e-01  9.3217278988137198e-01  3.0268573961536482e-01  6.2552684604332620e-01  -3.6750227843521610e-02  -8.2162263068879062e-04  1.0045830524640116e+00  1.0048962269739552e+00  1.0068904155762883e+00  1.0126668843056825e+00  7.4751145271345643e-01  9.9762256993571474e-01  9.9525878513092148e-01  9.9935445940991452e-01  5.6192618811741268e-01  5.2147422694351442e-01  5.3796481577761113e-01  3.6037846326380707e-01  6.7613294399224966e-01  1.0105898221826011e+00  1.0063219240207497e+00  1.0092202556490573e+00  9.1370379646440758e-01  9.6661371904805660e-01  1.8803486494683174e-02  4.7955858901560363e-03  9.1422707150862081e-01  3.1076686949735977e-01  7.5423285090511338e-01  9.2802417870496678e-01  8.5776141364215930e-01  4.6385588784683235e-01  6.1034469699505700e-01  9.1774236129772002e-01  6.5319231068252659e-01  4.9756992336882505e-01  6.7130385128426107e-01  6.9664117079482912e-01  7.3857439766693889e-01  4.5591472526960664e-01  6.5751124998386934e-01  7.4251740472140970e-01  9.4248743098751286e-01  9.2839202287676337e-01  9.4061730803092447e-01  1.0348473640510427e+00  9.8862203472538723e-01  1.0015392236248231e+00  9.9964122178850512e-01  9.9967932034811879e-01  -4.3928960452765432e-03  6.6679575765161347e-01  7.8233747886928773e-01  7.6433936443633055e-01  -3.1161682103666266e-02  4.2654069184968896e-01  8.4065112992556035e-01  1.0818743246044904e-01  7.5034450383820084e-01  3.9390908938957703e-01  3.8224684430070316e-01  7.1219001995084252e-01  1.1821399405147450e-02  -3.2895567873184738e-03  2.1661270252532464e-01  1.0506910345092286e+00  4.9520571200236863e-01  3.7009762885290259e-02  4.0014043541224426e-01  6.1043191970034627e-01  3.6958712932122001e-01  5.2900660636492380e-01  2.7745774605676893e-01  7.2978581380576989e-03  1.0444997168339853e+00  1.0436069795467955e+00  1.0243542559569356e+00  1.1685426505418488e+00  2.8290136984246027e-04  -2.1503893923726029e-06  -1.5678140684166576e-03  -4.1240712380171525e-02  1.0062094307581584e+00  9.6579940847163859e-01  6.7027595907899062e-01  1.0186750556940056e+00  -3.0573596432499394e-03  3.7356084445975960e-04  -3.7423306633558223e-02  -8.0948600488858727e-02  3.9630209443308900e-01  1.0110361570512703e+00  1.0193704901081717e+00  -8.6435971333310047e-02  -1.4183868377687803e-01  9.9856952918766717e-01  9.9973866655565646e-01  9.9244886344115890e-01  9.3432694602598410e-01  9.9015582153733628e-01  9.8920715883955412e-01  1.0382443187338992e+00  8.4589402792808610e-01  1.1164303376303473e+00  1.0176821630097055e+00  1.0108918789790788e+00  9.8818917558077979e-01  9.8597896959144715e-01  9.9826716133725446e-01  9.5808931902174665e-01  9.5079822445914020e-01  1.0589157151770510e+00  1.0265010495296594e+00  1.0095986241879615e+00  8.1855224087222844e-01  -1.1941818902043198e-01  6.6464617195244091e-01  9.0203913460545371e-01  2.8402850657658413e-01  5.2532263724974781e-01  5.3936309084350376e-01  7.8982562337539822e-02  3.7951492079659782e-02  1.1034103158308205e-04  -8.0540488063771132e-04  -5.6798773173878259e-03  -9.6743709940032036e-04  -2.8546818771374598e-02  -6.1993094785254658e-03  -9.9550205211295880e-05  -1.2498160046412808e-03  1.5024571342918705e-01  3.1101136189082573e-01  1.6386768099126464e-01  1.0000000000000000e+00  1.0000000000000000e+00  1.0000000000000000e+00  1.0000000000000000e+00  1.0000000000000000e+00  1.0000000000000000e+00  1.0000000000000000e+00  1.0000000000000000e+00  1.0000000000000000e+00  1.0000000000000000e+00  1.0000000000000000e+00  1.0000000000000000e+00  1.0000000000000000e+00  1.0000000000000000e+00  1.0000000000000000e+00  1.0000000000000000e+00  1.0000000000000000e+00  1.0000000000000000e+00  1.0000000000000000e+00  1.0000000000000000e+00  1.0000000000000000e+00  1.0000000000000000e+00  1.0000000000000000e+00  1.0000000000000000e+00  1.0000000000000000e+00  1.0000000000000000e+00  1.0000000000000000e+00  1.0000000000000000e+00  1.0000000000000000e+00  9.9997949922096174e-01  9.9993940468011677e-01  9.9988079617238257e-01  9.9970857682260339e-01  9.9939282343949287e-01  9.9883453810731249e-01  9.9785498449440135e-01  9.9628955834483446e-01  9.9502306919188632e-01  9.9422419038960808e-01  1.0025695565241546e+00  1.0275959981882294e+00  1.0188471708543649e+00  1.0184639850448955e+00  1.0216340673522499e+00  1.0237298540360138e+00  1.0284309142743193e+00  1.0332463864611641e+00  1.0332956844794361e+00  1.0302895369806322e+00  1.0276384028749284e+00  1.0190152325541366e+00  1.0173285338183105e+00  1.0145038217451832e+00  1.0072912744582874e+00  1.0057909315167888e+00  1.0011285950219539e+00  9.9970591206627091e-01  1.0001244044050279e+00  1.0004187101661568e+00  1.0026508807043333e+00  1.0066418694432415e+00  1.0027978192082083e+00  1.0012578364908418e+00  1.0007370840520355e+00  9.9906798858783807e-01  9.9926712530498696e-01  9.9771622379081271e-01  9.9647696510068240e-01  9.9334511822847316e-01  9.8378870727375312e-01  9.7083984875575480e-01  9.4846924669389865e-01  9.3462529138525519e-01  9.1460347255175412e-01  9.1063828470780184e-01  9.1954101054080162e-01  9.2411008193965594e-01  9.5510737953438929e-01  9.5537880756776716e-01  9.5271270058695301e-01  9.5215425451926194e-01  9.4252087778819837e-01  9.3230336063805286e-01  9.1942545677812004e-01  9.0888804631898712e-01  9.1203394006442329e-01  9.1943202396327228e-01  9.4665204895701383e-01  9.4856111068152982e-01  9.5032132147190507e-01  9.5041482966025082e-01  9.4501304777475059e-01  9.3625993930829321e-01  9.1838388085027267e-01  8.7325803589992324e-01  8.0730050604392556e-01  7.9999534720699272e-01  7.7821778302444089e-01  7.4674406571014174e-01  6.8824482791193098e-01  5.7881878590642788e-01  5.0007773391520172e-01  4.3006651722145944e-01  3.9224329981856498e-01  3.5359952059477884e-01  2.8786196288851251e-01  1.8042633726082274e-01  -5.2875441275535610e-02  -2.2919215453620848e-01  -1.7046915282669733e-01  -1.0517958138220472e-01  -5.8188709062111411e-02  -5.8832866723549135e-02  -6.2239202291029305e-02  -6.8905930915241109e-02  -1.0396495444154188e-01  -8.1675165466218225e-02  -3.9776504391255532e-02  -1.5810324017342961e-02  1.0808546930271546e-02  3.9872326541487937e-02  6.4795076887800201e-02  9.2371385341534468e-02  1.0251503528740052e-01  1.8605846184029831e-01  3.2006960660198841e-01  3.3297768384683396e-01  2.8847188835929627e-01  2.7702737729324572e-01  2.2931466287256411e-01  1.6351325160044761e-01  8.1343886092108755e-02  -8.5152489066685669e-05  -2.9158280850135818e-02  -2.4807631314928625e-02  -2.5373802038493598e-02  -1.8711401529595981e-02  -1.2570197824768691e-02  -8.4486287036450863e-03  -4.0756480340918590e-03  -5.8320269307206318e-04  -1.0760653645354452e-04  -9.2107669495605158e-05  -1.3092163128294573e-05  5.2890850961575846e-05  4.0241159661295140e-05  3.3483168174782163e-05  2.2837423997584748e-05  7.2926477307703040e-06  3.7428996209424037e-05  2.0547441465178495e-04  1.2529271790414370e-04  -3.1831690514206078e-03  -2.6847553272398021e-03  -1.0121089733153320e-03  1.9799857124524313e-03  2.3095801161202561e-03  2.3106553251266912e-03  1.9375096440783519e-03  1.1768252468688906e-03  4.6808962845184740e-04  7.2784043137554165e-06  -4.2429969133361272e-05  6.0409823646950187e-05  9.5217159727001706e-05  -9.9547639476930438e-06  3.2403691920397868e-06  1.5754761696695123e-05  1.1905709256195400e-06  1.2883656916780556e-06  -1.6422208769409757e-06  1.1960020268915966e-06  3.7732024306008960e-06  3.3327313098085851e-06  8.9682891003261738e-06  -8.5954541247401718e-07  6.3156638509772616e-07  -1.2997122438440974e-07  -1.1565949632127076e-08  7.7449935061271952e-09  2.8124574149691003e-08  -8.8127366226342703e-07  6.3470240959079696e-06  -4.6401953389573490e-05  1.9267695071931755e-03  1.1397044446178554e-02  -3.0586413281915015e-02  -1.9916642437243875e-02  1.1042299605156598e-01  2.8373417102386495e-01  4.3555651308071203e-01  5.0859661276745993e-01  4.8255004857139244e-01  4.1962753947334702e-01  3.3656627945971151e-01  2.5004495289142037e-01  5.1096398132676413e-02  1.3703879338144936e-01  1.3417110522820686e-01  3.7053168362516540e-03  1.0195192430898499e-01  2.2247638365621134e-01  2.5890281856781605e-01  2.3980468432024601e-01  1.9415675118280307e-01  1.1425580337578928e-01  2.2229973471382617e-02  1.0000184854480638e+00  9.9979171633023345e-01  9.9747474503673283e-01  9.9464520964261494e-01  9.9281905552159444e-01  9.8610846257634877e-01  9.5751926540717092e-01  8.6093148198380531e-01  3.3259281622235504e-01  -1.4663029018472851e-01  -9.8088856786333455e-03  7.1233796600578530e-03  -1.3105974133051455e-03  -5.4183283976729272e-04  4.4572901985538406e-04  -3.7986665870513386e-03  -1.9039550654449167e-02  -3.8332761821501540e-02  -1.0265247124924437e-01  -3.7130479827247437e-01  -2.5508686483374637e-01  -1.2972467703123766e-01  -4.2072377853867533e-02  4.5829798548164463e-02  1.6424627993724553e-01  2.5368863663230268e-01  4.5639366811784077e-01  5.1340979057853620e-01  5.5877594813142939e-01  5.7197644166065842e-01  6.1651801867361777e-01  5.8588691325649067e-01  5.6121655694935491e-01  5.5556450522677858e-01  5.5807935404594633e-01  5.5615019261788889e-01  5.3501455030707745e-01  4.9729271334301228e-01  4.8022595917548039e-01  5.0532773839374923e-01  5.2777218246552771e-01  5.5906704538454621e-01  5.7848094942790296e-01  5.9087457779832464e-01  5.7249223545209693e-01  5.4906672789961086e-01  5.0778235714813857e-01  4.6370134467448493e-01  4.2141395491959915e-01  3.9533789439842210e-01  3.9130211096895351e-01  4.1143326094663740e-01  4.8177797164654607e-01  5.3595404918407386e-01  6.2437674143457356e-01  6.2878547961609144e-01  6.3412745539976811e-01  6.0018720355911970e-01  5.6065021973617324e-01  5.2825687774839425e-01  5.0437557040964109e-01  4.8164606586499559e-01  4.4696417961811630e-01  4.0293962312282644e-01  3.5874790977196058e-01  3.2920892128678775e-01  3.2388857441484747e-01  3.4728325367019997e-01  3.7513148820388265e-01  3.9261637369055430e-01  3.9769656459370295e-01  3.7843416549098202e-01  3.5272046656553996e-01  3.0501825800316301e-01  2.8574779946935036e-01  3.3286578897334090e-01  3.1250974409628102e-01  3.1693350574351803e-01  3.0091706933547407e-01  2.5666102402705904e-01  1.9245209681307687e-01  1.4228495585686063e-01  1.4668421563141537e-01  1.9192924930374358e-01  3.2526329928655195e-01  3.6242077216254265e-01  3.3996945173973742e-01  3.1971876379631603e-01  2.5743913753017489e-01  1.6409308352010671e-01  7.8686367541103142e-02  1.5025549708861063e-02  -2.0653395866552012e-02  -4.1621477187325680e-02  -3.8782326127895575e-02  -1.2771418476597018e-02  -1.4838019079662540e-02  3.5818335885341450e-03  -6.2534933044541916e-03  -1.1895314110636887e-02  -1.4027145628072085e-02  -7.9697162433309075e-03  -3.9081944263998020e-03  -5.3179820918522741e-05  3.1759928416431470e-04  -2.9382724772859071e-04  1.2274583868500555e-06  -3.3163304860258444e-05  3.7761101001321646e-06  4.3305889093901586e-06  8.1819797888096472e-06  -4.6409595696019404e-05  -1.1269156229168191e-04  -1.1578070327964611e-04  -2.4772148505991222e-04  -2.9015038645313743e-04  -1.9646427309004131e-04  -3.6425319558616335e-04  -4.9752998754661049e-04  -4.7419481348607819e-04  -7.7408616036354674e-05  6.6487796323444395e-04  1.4160965927374285e-03  1.2647089906131985e-03  1.1222084848907456e-03  9.0716087657955087e-04  6.9016953260938089e-04  5.3945001133477992e-04  5.2566690277167875e-04  4.1917893687744761e-04  4.1432606601915419e-04  4.7482549093151035e-04  4.1437692539612284e-04  2.7985820010071146e-04  1.8646836517585100e-04  1.4253893497233745e-04  1.1739209082537994e-04  1.5268575759095544e-04  4.8359473235701781e-05  -2.2100811695562970e-03  -1.3614462464965702e-02  -1.5306785660589224e-02  -4.5215527052505158e-02  -3.8388174108500102e-02  -3.4493491791172087e-02  -3.1147359264355742e-02  -2.7583259085356065e-02  -2.5253642014235817e-02  -2.3896462134009873e-02  7.9988789192575760e-01  8.1024785333612637e-01  8.1869797564687430e-01  8.5347777026775329e-01  8.7177417345249342e-01  8.7714539451232287e-01  8.7916735392868439e-01  8.9884966014894219e-01  8.8909675844722424e-01  8.8265872497823161e-01  8.7291472227578226e-01  8.6420385314654968e-01  8.3452913465730294e-01  8.2211644589685684e-01  7.9914396178893810e-01  7.5287656319459539e-01  7.9976128032469884e-01  8.0476258925338218e-01  8.0338644626340017e-01  8.1349432720231507e-01  8.3324252387177788e-01  8.4603897329094990e-01  8.5361787492905761e-01  8.5497129978931197e-01  8.2559076424497446e-01  7.8268764591098483e-01  6.4261332190626708e-01  5.5361411466946298e-01  5.8674264848378432e-01  6.5248101337350528e-01  6.4599733128443293e-01  6.8718758083461517e-01  1.0080803635544453e+00  1.0038695384024625e+00  1.0031747345402862e+00  1.0038082655147862e+00  1.0026113188036423e+00  1.0022437451155335e+00  1.0020916650516625e+00  1.0020572034958004e+00  1.0031461858222084e+00  1.0047498229579439e+00  1.0053415327379804e+00  1.0061045683000180e+00  1.0084450475581290e+00  1.0088174541793891e+00  1.0078855610153996e+00  1.0083590043970356e+00  -1.7590970808973656e-05  2.0565270417754163e-03  3.1620489159802753e-03  3.4007144613825892e-03  4.4787521473951706e-03  4.1490753039863130e-03  4.0500838959516942e-03  -6.5227657128735588e-04  -4.3197272704962207e-03  -6.4919802847772797e-06  5.3735073467474327e-04  -1.0674067736780033e-04  -1.7170727546995609e-02  -6.2472902093268029e-02  -3.8185293139699976e-02  -4.2433000260774317e-02  9.9755622205384964e-01  9.9773371865250171e-01  9.9908292081827588e-01  9.9969224845920268e-01  9.9924346565729738e-01  9.9921199832904950e-01  1.0004251870345344e+00  9.9987860769318126e-01  9.9992097813581182e-01  1.0000563804806553e+00  1.0004913116595169e+00  1.0011551232409817e+00  9.9832421879930133e-01  9.9799183960579951e-01  9.9826437824135350e-01  9.9841314305600914e-01  1.8057516636174517e-01  2.0804938365077036e-01  2.2324944311113495e-01  2.2237030880442038e-01  2.4385921052800894e-01  2.9187862706737155e-01  3.3492173055416624e-01  3.8384838984203684e-01  3.9340073791018632e-01  4.4420363182360506e-01  5.1040537519233242e-01  4.9102510573306118e-01  4.1417842526027610e-01  3.7438471145592517e-01  3.6013574389076325e-01  3.1962597958624883e-01  1.8746541413540485e-01  2.4368065386609614e-01  2.6734275899943677e-01  2.8048879066463256e-01  2.9334644485049377e-01  3.0891146408021375e-01  3.2622936477668119e-01  3.4067216091825808e-01  3.4892680013538879e-01  3.4149788061947733e-01  3.3679951827562465e-01  3.3152243650555580e-01  3.2327475514810505e-01  2.9396615964098188e-01  2.1436512388982928e-01  6.3764493322922319e-02  8.8543887080843997e-01  9.1587661635558526e-01  9.4674980101555051e-01  9.7271660509011404e-01  9.9050058082951564e-01  9.9186268910225905e-01  9.8780975988736397e-01  9.8218431573703846e-01  9.7262432947175492e-01  9.6899783105671922e-01  9.6571516063951646e-01  9.5496993465566693e-01  9.3876241164185670e-01  9.1162880691201764e-01  7.2604013625905217e-01  7.9033268926631250e-01  4.9202249107202201e-01  5.9704446383107068e-01  7.5500964163870921e-01  8.3576134380609202e-01  8.8912522348735301e-01  9.0006321672187650e-01  9.1355102351140027e-01  9.2318873881551244e-01  9.1993194739459982e-01  9.1127706111100648e-01  9.1274309622425531e-01  9.2422978507322784e-01  9.2257733518223384e-01  9.1700409676385219e-01  7.1411460087643885e-01  2.5148850117510779e-01  4.1366956915500930e-01  4.3938345406289187e-01  4.5000046671547173e-01  5.1774844786253416e-01  6.0867199670310923e-01  6.1443568008883775e-01  5.9341790294931029e-01  5.7311560076503498e-01  5.4337947214469740e-01  6.1116819039461645e-01  5.8796540426026656e-01  5.9255229095992556e-01  5.3548510405602645e-01  4.9889182551450967e-01  4.4803961412716597e-01  2.8907757670236384e-01  1.7425015689871062e-01  1.9625792791684604e-01  2.1044658224993762e-01  2.1345124326946738e-01  3.1197059065026711e-01  4.2273262275689477e-01  4.4007955221362377e-01  4.5365910069511528e-01  4.1313964183241297e-01  3.7316386678404462e-01  3.0219080816033950e-01  2.4326344573369391e-01  3.1298339107468842e-01  2.6787318703667090e-01  2.5462202024080388e-01  2.3252528315241469e-01  1.0068327512913295e+00  1.0219285965469551e+00  1.0297157387553817e+00  1.0203849756188714e+00  1.0182686169589603e+00  1.0173616375516705e+00  1.0155252320344152e+00  1.0147509066976632e+00  1.0167071181880385e+00  1.0153828272392913e+00  1.0173639201141533e+00  1.0112319394789946e+00  4.5940183949311952e-01  -1.8994342493690114e-02  -3.7283527040655483e-02  3.7483983425286338e-01  2.