<?xml version="1.0"?>
<VTKFile type="UnstructuredGrid"  version="0.1"  >
<UnstructuredGrid>
<Piece  NumberOfPoints="4448" NumberOfCells="7310">
<Points>
<DataArray  type="Float64"  NumberOfComponents="3"  format="ascii">0 0 0  0 1 0  5 1 0  5 0 0  2.685965962967975 0.6199970297988864 0  2.585965962967975 0.7199970297988864 0  2.485965962967974 0.6199970297988864 0  2.585965962967975 0.5199970297988864 0  2.887457126027364 0.718961842035438 0  2.787457126027364 0.818961842035438 0  2.687457126027364 0.718961842035438 0  2.787457126027364 0.618961842035438 0  0.8769895867556056 0.290401976457433 0  0.7769895867556056 0.390401976457433 0  0.6769895867556056 0.290401976457433 0  0.7769895867556056 0.190401976457433 0  4.376177735165038 0.8808430758872411 0  4.276177735165039 0.9808430758872411 0  4.176177735165039 0.8808430758872411 0  4.276177735165039 0.7808430758872411 0  0.6141057752375989 0.3768652333524785 0  0.5141057752375989 0.4768652333524784 0  0.4141057752375989 0.3768652333524785 0  0.5141057752375989 0.2768652333524785 0  4.630582754177703 0.6406480284476114 0  4.530582754177703 0.7406480284476114 0  4.430582754177704 0.6406480284476114 0  4.530582754177703 0.5406480284476114 0  4.896214045309746 0.4187630456168357 0  4.796214045309746 0.5187630456168357 0  4.696214045309747 0.4187630456168357 0  4.796214045309746 0.3187630456168358 0  2.155589080094151 0.2204087294390689 0  2.055589080094151 0.320408729439069 0  1.955589080094151 0.2204087294390689 0  2.055589080094151 0.1204087294390689 0  2.404826935341426 0.8737119164346264 0  2.304826935341426 0.9737119164346264 0  2.204826935341426 0.8737119164346264 0  2.304826935341426 0.7737119164346264 0  2.964213492896404 0.1174061699058604 0  2.864213492896404 0.2174061699058604 0  2.764213492896404 0.1174061699058604 0  2.864213492896404 0.01740616990586039 0  3.582837128300153 0.298032837113745 0  3.482837128300153 0.3980328371137449 0  3.382837128300153 0.298032837113745 0  3.482837128300153 0.1980328371137449 0  0.8088212649691964 0.7502337282029031 0  0.7088212649691964 0.8502337282029031 0  0.6088212649691964 0.7502337282029031 0  0.7088212649691964 0.6502337282029031 0  4.223801910336278 0.5002442229252277 0  4.123801910336279 0.6002442229252277 0  4.023801910336279 0.5002442229252277 0  4.123801910336279 0.4002442229252278 0  4.922353386628925 0.2017240624096503 0  4.822353386628925 0.3017240624096503 0  4.722353386628925 0.2017240624096503 0  4.822353386628925 0.1017240624096503 0  2.206072007496676 0.5374870999379825 0  2.106072007496676 0.6374870999379825 0  2.006072007496676 0.5374870999379825 0  2.106072007496676 0.4374870999379825 0  4.32315537674505 0.6819384234094167 0  4.22315537674505 0.7819384234094167 0  4.123155376745051 0.6819384234094167 0  4.22315537674505 0.5819384234094167 0  3.715487240450959 0.1001729247534523 0  3.615487240450959 0.2001729247534523 0  3.515487240450959 0.1001729247534523 0  3.615487240450959 0.0001729247534522776 0  1.763896808309352 0.814597031442381 0  1.663896808309352 0.914597031442381 0  1.563896808309352 0.814597031442381 0  1.663896808309352 0.7145970314423811 0  2.134954894404413 0.8503736436135857 0  2.034954894404413 0.9503736436135857 0  1.934954894404413 0.8503736436135857 0  2.034954894404413 0.7503736436135857 0  4.032081200799731 0.8883073324077129 0  3.932081200799732 0.9883073324077128 0  3.832081200799732 0.8883073324077129 0  3.932081200799732 0.7883073324077129 0  1.720272337623273 0.315263346238785 0  1.620272337623273 0.415263346238785 0  1.520272337623273 0.315263346238785 0  1.620272337623273 0.215263346238785 0  2.849341852368551 0.3377485432764519 0  2.749341852368551 0.4377485432764519 0  2.649341852368551 0.3377485432764519 0  2.749341852368551 0.2377485432764519 0  0.353954769751299 0.3076959497508149 0  0.253954769751299 0.4076959497508149 0  0.153954769751299 0.3076959497508149 0  0.253954769751299 0.2076959497508149 0  4.220679522741156 0.1330663414655305 0  4.120679522741156 0.2330663414655305 0  4.020679522741156 0.1330663414655305 0  4.120679522741156 0.03306634146553053 0  4.03846295264503 0.2615603127259356 0  3.93846295264503 0.3615603127259356 0  3.83846295264503 0.2615603127259356 0  3.93846295264503 0.1615603127259356 0  1.258185597494404 0.7951208458533302 0  1.158185597494404 0.8951208458533302 0  1.058185597494404 0.7951208458533302 0  1.158185597494404 0.6951208458533302 0  2.66756980469976 0.2103205042379263 0  2.567569804699759 0.3103205042379263 0  2.467569804699759 0.2103205042379263 0  2.567569804699759 0.1103205042379263 0  3.066183082511723 0.4648897272298002 0  2.966183082511723 0.5648897272298001 0  2.866183082511723 0.4648897272298002 0  2.966183082511723 0.3648897272298002 0  3.876160132013113 0.5302140905286264 0  3.776160132013113 0.6302140905286264 0  3.676160132013113 0.5302140905286264 0  3.776160132013113 0.4302140905286265 0  4.435786682356577 0.1191533144960393 0  4.335786682356577 0.2191533144960393 0  4.235786682356578 0.1191533144960393 0  4.335786682356577 0.01915331449603927 0  3.657464697025493 0.6000278738124513 0  3.557464697025493 0.7000278738124512 0  3.457464697025493 0.6000278738124513 0  3.557464697025493 0.5000278738124513 0  3.695085226088024 0.8183916024406818 0  3.595085226088024 0.9183916024406817 0  3.495085226088024 0.8183916024406818 0  3.595085226088024 0.7183916024406818 0  0.6716618480696921 0.5839650746876788 0  0.5716618480696921 0.6839650746876788 0  0.4716618480696921 0.5839650746876788 0  0.5716618480696921 0.4839650746876788 0  3.384667051383998 0.4223896768935983 0  3.284667051383998 0.5223896768935983 0  3.184667051383998 0.4223896768935983 0  3.284667051383998 0.3223896768935983 0  1.283504513865784 0.1674438639117045 0  1.183504513865784 0.2674438639117045 0  1.083504513865784 0.1674438639117045 0  1.183504513865784 0.06744386391170451 0  3.360557185844586 0.8746680565940553 0  3.260557185844585 0.9746680565940553 0  3.160557185844585 0.8746680565940553 0  3.260557185844585 0.7746680565940554 0  1.540529467032703 0.1794710788309493 0  1.440529467032703 0.2794710788309492 0  1.340529467032703 0.1794710788309493 0  1.440529467032703 0.07947107883094925 0  0.328482578588082 0.861302184907903 0  0.228482578588082 0.961302184907903 0  0.128482578588082 0.861302184907903 0  0.228482578588082 0.761302184907903 0  2.433715755666527 0.5671313263739527 0  2.333715755666527 0.6671313263739527 0  2.233715755666527 0.5671313263739527 0  2.333715755666527 0.4671313263739527 0  1.230126416042657 0.4719216314495289 0  1.130126416042657 0.5719216314495289 0  1.030126416042657 0.4719216314495289 0  1.130126416042657 0.3719216314495289 0  0.6116895212263961 0.1109717124183122 0  0.5116895212263961 0.2109717124183123 0  0.4116895212263961 0.1109717124183122 0  0.5116895212263961 0.01097171241831223 0  1.826399793314543 0.5107585635357751 0  1.726399793314543 0.6107585635357751 0  1.626399793314543 0.5107585635357751 0  1.726399793314543 0.4107585635357751 0  1.55211198904505 0.4715062703352436 0  1.45211198904505 0.5715062703352436 0  1.35211198904505 0.4715062703352436 0  1.45211198904505 0.3715062703352436 0  4.634586060050256 0.3908052747188366 0  4.534586060050256 0.4908052747188366 0  4.434586060050257 0.3908052747188366 0  4.534586060050256 0.2908052747188367 0  4.402298611127895 0.3855442737855176 0  4.302298611127895 0.4855442737855176 0  4.202298611127896 0.3855442737855176 0  4.302298611127895 0.2855442737855176 0  1.952879969939083 0.1350676669858752 0  1.852879969939083 0.2350676669858752 0  1.752879969939083 0.1350676669858752 0  1.852879969939083 0.03506766698587516 0  0.2569000568572125 0.624378330560713 0  0.1569000568572125 0.724378330560713 0  0.05690005685721253 0.624378330560713 0  0.1569000568572125 0.524378330560713 0  3.161687137399175 0.8244152317893645 0  3.061687137399175 0.9244152317893645 0  2.961687137399175 0.8244152317893645 0  3.061687137399175 0.7244152317893645 0  2.395032016636657 0.3643063846039553 0  2.295032016636657 0.4643063846039552 0  2.195032016636657 0.3643063846039553 0  2.295032016636657 0.2643063846039553 0  2.617463499593836 0.8856904558897764 0  2.517463499593836 0.9856904558897763 0  2.417463499593836 0.8856904558897764 0  2.517463499593836 0.7856904558897764 0  3.421102286656348 0.6813514212092414 0  3.321102286656348 0.7813514212092414 0  3.221102286656348 0.6813514212092414 0  3.321102286656348 0.5813514212092414 0  2.449787661472024 0.1680638375564639 0  2.349787661472024 0.2680638375564639 0  2.249787661472024 0.1680638375564639 0  2.349787661472024 0.06806383755646392 0  3.355617450537308 0.1968805330923727 0  3.255617450537307 0.2968805330923727 0  3.155617450537307 0.1968805330923727 0  3.255617450537307 0.09688053309237274 0  1.503825997254619 0.6923599081039139 0  1.403825997254619 0.7923599081039139 0  1.303825997254619 0.6923599081039139 0  1.403825997254619 0.5923599081039139 0  4.810628718351659 0.8986629234755887 0  4.710628718351659 0.9986629234755887 0  4.610628718351659 0.8986629234755887 0  4.710628718351659 0.7986629234755888 0  0.5404316710680832 0.8720628158042852 0  0.4404316710680832 0.9720628158042852 0  0.3404316710680833 0.8720628158042852 0  0.4404316710680832 0.7720628158042853 0  4.973460784063308 0.7469193359422902 0  4.873460784063308 0.8469193359422902 0  4.773460784063309 0.7469193359422902 0  4.873460784063308 0.6469193359422902 0  1.004252616630607 0.8231219524210824 0  0.9042526166306074 0.9231219524210824 0  0.8042526166306074 0.8231219524210824 0  0.9042526166306074 0.7231219524210825 0  0.28081752570913 0.1080256308500591 0  0.18081752570913 0.2080256308500591 0  0.08081752570912998 0.1080256308500591 0  0.18081752570913 0.008025630850059071 0  1.069684414289768 0.1432175458177037 0  0.9696844142897676 0.2432175458177037 0  0.8696844142897676 0.1432175458177037 0  0.9696844142897676 0.04321754581770368 0  2.027723889848873 0.4050114807802901 0  1.927723889848873 0.5050114807802901 0  1.827723889848873 0.4050114807802901 0  1.927723889848873 0.3
[...]
<PointData  Scalars="f_19"> 
<DataArray  type="Float64"  Name="f_19"  format="ascii">1.0000000000000000e+00  1.0000000000000000e+00  2.8619985106149464e-07  -4.7627003103082981e-02  8.7223591765720376e-01  9.1432013833216697e-01  9.3215201621156241e-01  9.0914034455307235e-01  8.6388226719811967e-01  8.9139912174790203e-01  9.1031917908850846e-01  7.2874740785444503e-01  1.0064421785958084e+00  1.0024843268589578e+00  1.0016606466726277e+00  1.0046228815093790e+00  -5.4168613895126921e-02  1.4939680045415861e-02  -9.5445166297975607e-03  -7.7187238432173668e-03  9.9891312548899336e-01  9.9954078298833560e-01  1.0000983685734308e+00  1.0004119157106284e+00  2.9662919586208947e-01  4.1073785247043354e-01  5.8048721737967957e-01  6.4423599413226351e-01  1.2414124132667102e-01  4.0624004415786297e-01  4.6909801760086567e-01  4.5063486487783166e-01  9.3303371921708378e-01  9.9850204627183592e-01  9.9915911170963301e-01  9.7687717845336608e-01  5.6411658749677052e-01  9.3985202577162363e-01  9.7108566596372980e-01  9.7394731700006532e-01  5.3815908901027854e-01  6.8291999817825777e-01  6.5779531010302550e-01  6.3785356473736954e-01  3.0882802647675267e-01  4.5364086527337655e-01  6.3722201675070500e-01  5.5216276607116310e-01  9.8076204276317447e-01  1.0109769848535552e+00  1.0080873499572809e+00  9.6175610929617827e-01  6.1306204291559641e-01  3.5503940443483223e-01  5.5297951165004888e-01  6.2361498041284325e-01  1.2455201645990753e-01  4.2918578469073998e-01  5.2545138642368294e-01  4.6557038390452443e-01  6.0574956386402279e-01  1.0340353989073769e+00  1.1121133636820120e+00  2.6998841147775737e-01  5.3976011023460183e-02  1.9122133743803393e-03  1.2245474850000730e-03  7.3268600444884133e-02  -7.1473026105121230e-03  -7.5772271416188003e-02  -9.5062152535932594e-03  -5.5134909330492826e-05  8.9843427547586263e-01  9.2134641838217390e-01  9.3805638615503273e-01  9.2573110286376670e-01  9.5592639795161960e-01  9.5306470315949621e-01  9.5451972379896699e-01  9.0824129704933598e-01  -3.2593740285241988e-03  4.1827460353370028e-04  1.2052049996683274e-04  5.8306519090697589e-02  1.0122789722645469e+00  1.0302436238972583e+00  1.0059984083870754e+00  1.0060553490274142e+00  7.0704587091416138e-01  2.1426405642828203e-01  6.6837980551369924e-01  8.4809144213686083e-01  9.9948519419626858e-01  9.9961319764686796e-01  9.9899575324501144e-01  9.9925984258164646e-01  1.3653363933375975e-02  -1.0129977004019457e-01  1.5974698810182257e-02  9.7657059507076822e-03  -2.7586872924003202e-02  1.4842468309086310e-01  1.1590941613562621e-01  -1.0005472272527915e-03  9.6282862882400533e-01  8.2342668179798051e-01  1.1020801647921350e+00  9.6976282807175895e-01  6.7082680847922171e-01  1.8959086058010674e-01  7.8836963087798173e-01  8.5746885585980614e-01  3.0068253184547367e-01  -2.1861130815280641e-02  1.9624414572561802e-01  6.5170210088028468e-01  2.3535179061520678e-01  1.5073858268465636e-02  -6.7500515105599249e-02  3.3734151923709949e-01  -1.3161724067594371e-02  -2.2903908527698642e-02  -1.1397392525012321e-02  1.8779474198821788e-03  1.5380150978878437e-02  2.1135231721314410e-01  -2.4452126118049214e-02  4.4629136902342287e-01  2.5581770126999643e-04  2.8724823186228630e-02  5.5421722156366086e-02  1.2535213152702043e-01  1.0604289784345322e+00  1.0070322297921559e+00  1.0017350482306202e+00  1.0008592169231945e+00  4.1512949985472314e-01  2.9943467956382191e-01  4.5729838391983241e-01  6.7575101048850317e-01  9.8947409310656831e-01  9.8029316310444869e-01  1.0144145127733319e+00  9.9259262808867099e-01  4.9755488186382552e-01  7.5521717662918886e-01  3.6224769426841844e-02  -6.4535138847254328e-03  1.0047751101967863e+00  1.0035830351700636e+00  1.0045064566997388e+00  1.0049966471472453e+00  7.8532710231696046e-01  9.9771831964820024e-01  9.9528264059314975e-01  9.9946670469113674e-01  7.2686760282274854e-01  7.0568223215108072e-01  7.4798529880907705e-01  6.1973702811356379e-01  7.9771426274332513e-01  1.0060709806137647e+00  1.0033705959873032e+00  1.0049165570922640e+00  9.3641820450997737e-01  9.7669793555784690e-01  1.9022031029294179e-01  5.6823727647470745e-03  9.5291282587368009e-01  5.0828620008201697e-01  8.6621510050919903e-01  9.6543395431335466e-01  9.2093259312782849e-01  6.3305868007389410e-01  7.5710814066629273e-01  9.6306709302828131e-01  7.8359961289199631e-01  6.6281150197423833e-01  7.8443000935651530e-01  8.1066736065242928e-01  8.4129078973973881e-01  6.2391347255724150e-01  7.5977299744643112e-01  8.3153737873253764e-01  9.7629322057897150e-01  9.6296098899128935e-01  9.6708000242109216e-01  1.0450858308252537e+00  9.9683335251057925e-01  1.0015467800988673e+00  9.9964405826748015e-01  9.9969410081972720e-01  -3.0252429821099179e-02  7.7904562285668133e-01  8.5941316529577483e-01  8.5339520550742343e-01  -6.5344021315528300e-02  6.8041060895704997e-01  9.4776012433336809e-01  2.9400643880356908e-01  8.2224749566484368e-01  5.8900260710611574e-01  5.7745057341935413e-01  7.9539981551370154e-01  3.0873005913233866e-02  -9.8568365458355546e-03  3.7254653535615367e-01  1.0780678285466785e+00  7.0970949694115226e-01  1.5539519737480481e-01  6.1673072405588225e-01  7.9674976726155189e-01  5.6376818219360902e-01  6.9658672910592689e-01  4.6529064710493973e-01  4.2660124375690299e-02  1.0423563608060062e+00  1.0306204474962251e+00  1.0161369953090689e+00  1.1291558753602913e+00  -5.8640136623767751e-04  -1.5675084259965393e-06  -3.5467587535881104e-03  -8.9958043128135268e-02  1.0074558108149543e+00  9.7209695351265857e-01  7.2339664189252584e-01  1.0189824585452123e+00  -3.8332474369104233e-03  -1.2338741823312877e-04  -7.5990824093889187e-02  -8.7024552915931294e-02  4.4668464765793253e-01  1.0076014036735927e+00  1.0213123441460574e+00  -7.7980326843088690e-03  -2.0908034161653524e-01  9.9954910772243122e-01  9.9981047735290618e-01  9.9938996326524121e-01  9.6812621923602893e-01  9.9357149082877050e-01  9.9199560229354611e-01  1.0366882348647088e+00  8.8407500111503579e-01  1.0910481624197670e+00  1.0143598823069193e+00  1.0143023249817649e+00  9.9467353490639321e-01  9.8564866278733665e-01  1.0003239394607011e+00  9.8185320284910349e-01  9.7393756979953439e-01  1.0523736798737260e+00  1.0266311138173008e+00  1.0149380066453872e+00  8.8895332406912575e-01  -9.1434679489335646e-02  7.8331513393020835e-01  9.4738490865695346e-01  4.6910033605325785e-01  6.6955024668164953e-01  6.8077303124022481e-01  2.0707795550576019e-01  4.9161621586204157e-02  6.1509843486639334e-04  -3.0548209386106972e-03  -3.4310349776119674e-03  4.9197512710170456e-02  2.1330787837840929e-02  -4.9199354207648460e-03  5.1460182649878006e-04  -2.1190496442645854e-02  2.6129559471064939e-01  4.6752008923049371e-01  3.0113482221093302e-01  1.0000000000000000e+00  1.0000000000000000e+00  1.0000000000000000e+00  1.0000000000000000e+00  1.0000000000000000e+00  1.0000000000000000e+00  1.0000000000000000e+00  1.0000000000000000e+00  1.0000000000000000e+00  1.0000000000000000e+00  1.0000000000000000e+00  1.0000000000000000e+00  1.0000000000000000e+00  1.0000000000000000e+00  1.0000000000000000e+00  1.0000000000000000e+00  1.0000000000000000e+00  1.0000000000000000e+00  1.0000000000000000e+00  1.0000000000000000e+00  1.0000000000000000e+00  1.0000000000000000e+00  1.0000000000000000e+00  1.0000000000000000e+00  1.0000000000000000e+00  1.0000000000000000e+00  1.0000000000000000e+00  1.0000000000000000e+00  1.0000000000000000e+00  9.9998172011361131e-01  9.9994599336164003e-01  9.9989367374625104e-01  9.9973017115347096e-01  9.9941854592235946e-01  9.9887836751898040e-01  9.9793936060404465e-01  9.9645509642546437e-01  9.9531843165548128e-01  9.9491964916765430e-01  1.0019492370427601e+00  1.0229340197369361e+00  1.0157547005361249e+00  1.0154553602246050e+00  1.0181148105937878e+00  1.0199511483092263e+00  1.0240672577628258e+00  1.0288462501087259e+00  1.0291226387443673e+00  1.0264368359737936e+00  1.0241319412027594e+00  1.0159556151325770e+00  1.0143276022844456e+00  1.0118541841497615e+00  1.0055218077785155e+00  1.0044546155334868e+00  1.0010551793791649e+00  1.0000358570434498e+00  1.0003593351608731e+00  1.0008075697077177e+00  1.0027249100045879e+00  1.0062529649066445e+00  1.0031902628790199e+00  1.0021325949113291e+00  1.0019811241751233e+00  1.0009732602567389e+00  1.0019334866981982e+00  1.0020437447694550e+00  1.0032865223588383e+00  1.0038116643002204e+00  1.0005849089864371e+00  9.9519806076558603e-01  9.8053953404508454e-01  9.7368056732753372e-01  9.5677800669500712e-01  9.5606618176002089e-01  9.6335994622581966e-01  9.6675116183737586e-01  9.8670743705230257e-01  9.8731386726289616e-01  9.8645288038012469e-01  9.8702960554773711e-01  9.8272679686253073e-01  9.7882011983183337e-01  9.7405072636087597e-01  9.7017123339871014e-01  9.7252470904396426e-01  9.7603946504575045e-01  9.8849655366343347e-01  9.8775723042356589e-01  9.8728165995206851e-01  9.8657283085375880e-01  9.8552359054274519e-01  9.8281327577925426e-01  9.7486228734573754e-01  9.5027924879084213e-01  9.1141021756035723e-01  9.0374218463845735e-01  8.8768805614455315e-01  8.6667710568300549e-01  8.2742492281594937e-01  7.4611181207954202e-01  6.8335257210677869e-01  6.2234193070902577e-01  5.8626028308948275e-01  5.4657315061369915e-01  4.7411933210952467e-01  3.4972878616095920e-01  4.3330792132593443e-02  -1.6614880697900530e-01  -1.0422336280663157e-01  -3.9659597229342564e-02  1.1430902330917607e-02  3.4733897040645483e-03  -7.2964522642804562e-03  -1.9839960206567458e-02  -6.1972241880139271e-02  -3.9108643260558767e-02  1.1417390174691148e-02  3.6405414980673151e-02  6.5827445655999087e-02  1.0252627604577420e-01  1.3209722075561259e-01  1.5927745684544312e-01  1.6497006762008254e-01  2.4326312326670765e-01  3.8541213944813696e-01  4.0278514076309507e-01  3.5201077433700717e-01  3.4595992338988069e-01  2.9826358420308974e-01  2.3555459511343999e-01  1.5410718528637518e-01  5.3844306116674859e-02  -1.0415694072153420e-02  -2.2277696849770195e-02  -3.1191748561102090e-02  -2.8452545886951688e-02  -2.3565756169430272e-02  -1.9975012794648070e-02  -1.2332226280032521e-02  -3.5213291725971303e-03  -1.3872883646979287e-03  -7.4093428652709193e-04  4.2963092481248559e-05  5.5784591157761977e-04  4.3995823780121373e-04  3.8159488982362078e-04  3.0745046332218191e-04  2.0774409430517383e-04  1.7383310808199786e-04  5.2009615583400591e-04  -6.5408849311658038e-04  -1.1326367441612008e-02  -1.0221780374277265e-02  -4.0512196974829880e-03  6.5393416461726091e-03  8.3951571633635053e-03  8.6493154406172834e-03  7.2020389516381953e-03  4.6014478722255338e-03  2.1638472553701109e-03  1.6575948566162400e-04  -3.6559386606231745e-04  -6.5826105257056736e-05  1.7146868194260984e-04  5.7667748691563006e-05  -5.4045016609553314e-06  2.2624338650994558e-05  9.2502557628069120e-06  7.1147826999649536e-06  -7.5494055781676827e-06  1.0209305199117613e-05  3.9377727757336591e-05  -5.1460099022512597e-06  1.7901981983839285e-05  -2.4049504541866948e-05  1.1140438767665643e-05  -1.4179617659011083e-06  -1.8199132291920747e-07  -2.5399119054454942e-07  -6.1911443985803495e-07  -8.1283052331269211e-07  -2.5279165784778284e-06  1.2046829254317960e-05  2.8106873215118173e-03  1.9848794178930675e-02  -5.8960637427121737e-02  1.6363128162983614e-02  2.2076153941210305e-01  4.4108551955450725e-01  6.0952374122601161e-01  6.6445235635207756e-01  6.1175778057702135e-01  5.3800450431756797e-01  4.6073046725203443e-01  3.7954798186400035e-01  1.2208571044887101e-01  2.4509642267964543e-01  2.4838592720996622e-01  3.1458475603237175e-02  1.9322088818288888e-01  3.3723331025614839e-01  3.6797813508948363e-01  3.4027567442823997e-01  2.8194721305140596e-01  1.7957461578892067e-01  5.2473858261131628e-02  1.0000449967105800e+00  1.0000029188686170e+00  9.9899333018082015e-01  9.9878264839862640e-01  9.9874728573942517e-01  9.9551939277144175e-01  9.7590033937327281e-01  9.2284775404204655e-01  5.2778216119194155e-01  -1.1062186024675547e-01  -6.4779643486458302e-02  1.1124658788322576e-02  5.6456381123214478e-03  3.5742988349783105e-03  2.3136807199913723e-03  -2.4565648580524187e-03  -1.8820056144689248e-02  -4.0471452920964449e-02  -1.1460745416064691e-01  -3.7895322295477912e-01  -2.4410722478179234e-01  -1.0581507369149723e-01  -9.0769863773716482e-03  8.9437428965344734e-02  2.1748989692790371e-01  3.0729479066573201e-01  5.0793932186130930e-01  5.6207246679583978e-01  6.0514365767956180e-01  6.1849509660035540e-01  6.6195503450222726e-01  6.3761752421858386e-01  6.1949813357778483e-01  6.1778350819410510e-01  6.2222405536389047e-01  6.2282550511659152e-01  6.0708203562153829e-01  5.7664237119647732e-01  5.5939747607437340e-01  5.7479996798124611e-01  5.9631790996469136e-01  6.2625948500871398e-01  6.4486455126101661e-01  6.5705605539306133e-01  6.4153593628628292e-01  6.2215524821876356e-01  5.8736428129182838e-01  5.5091602621530211e-01  5.1664945295242248e-01  4.9638136349936340e-01  4.9476618072687545e-01  5.1346750234530025e-01  5.7494323783192880e-01  6.2129484386207434e-01  6.9661875139533569e-01  7.0057716514156854e-01  7.0553284784271364e-01  6.7723410568655562e-01  6.4444420194010044e-01  6.1783937598442185e-01  5.9828989542650279e-01  5.7966421108608046e-01  5.5059789539000470e-01  5.1330031687276534e-01  4.7582437005641132e-01  4.5238794701436796e-01  4.4929870291065660e-01  4.6799392644455484e-01  4.8805399403840133e-01  5.0160282375947285e-01  5.0608332379856102e-01  4.9095038629987353e-01  4.6888927056591795e-01  4.2809453108678208e-01  4.0946872403662443e-01  4.4374286451286488e-01  4.2450902907565130e-01  4.2462700554191601e-01  4.0844658944857276e-01  3.6788006897252939e-01  3.0764912351790114e-01  2.5400640701752109e-01  2.5150058309225426e-01  2.9298297304760218e-01  4.2103560654537076e-01  4.5930149504690504e-01  4.3668478575035535e-01  4.2004556410655269e-01  3.6113767111322831e-01  2.6832549514496468e-01  1.7073955716444236e-01  8.4407901782603892e-02  2.1841186997949239e-02  -2.1897731214918587e-02  -3.3225098934164352e-02  1.5882676196934408e-04  -4.4239627383872463e-03  2.3622282495261562e-02  3.5409392486977125e-03  -1.3199478435446723e-02  -2.5109834728097601e-02  -1.9465680365960646e-02  -1.3584455871663396e-02  -3.5811297833464686e-03  2.1599446645950873e-03  -1.2391181625948328e-03  6.8318105605543692e-06  -1.1358495768728080e-04  4.7109705017343775e-06  2.7501192227297098e-06  5.7898579993440623e-06  1.5543643960574877e-05  2.0791219975145771e-04  2.7411193575444280e-04  1.3345489402975831e-05  -1.0443119793038552e-04  3.9138772003394063e-05  -1.0309006410059609e-03  -1.4333836944108249e-03  -2.0796535355426127e-03  -2.5055399064316136e-03  -8.4571863432145809e-05  3.5630096817176513e-03  3.3849916045038046e-03  2.2305383446091474e-03  1.3377250534320501e-03  1.4549850396002187e-03  1.3972598382522192e-03  2.1637562153153230e-03  1.9658574157906876e-03  1.8246952905150943e-03  1.6881135473706340e-03  1.2101403470491903e-03  6.6547183195330816e-04  3.9626176766356847e-04  4.0138485701365895e-04  1.4622340895020471e-04  -3.5872999647544438e-04  -1.5982501471615718e-03  -9.7875004873562727e-03  -4.0048197086895408e-02  -3.2994844007416660e-02  -6.2766035035428394e-02  -5.3062558057340788e-02  -4.7394500703708077e-02  -4.3745129957091539e-02  -4.1633538235618557e-02  -4.1203797250450098e-02  -4.1198545830477766e-02  8.7907698686738323e-01  8.8282582680131827e-01  8.8767249511139346e-01  9.0627409396650016e-01  9.1610064600766916e-01  9.2139065525538411e-01  9.2335639375812872e-01  9.3338281915787691e-01  9.2757968876748698e-01  9.2389223071301341e-01  9.1889699640481226e-01  9.1576208481424048e-01  9.0046956175057680e-01  8.9350270054645953e-01  8.8150421398426659e-01  8.5661732024145887e-01  8.7828565952467974e-01  8.8132539474796034e-01  8.8051246150235318e-01  8.8562061147276216e-01  8.9604058379097085e-01  9.0281402885731543e-01  9.0664213240805014e-01  9.0688173466369870e-01  8.9475899119240665e-01  8.6975715845116119e-01  7.8310398976332840e-01  7.2893147194838936e-01  7.4460467350079096e-01  7.8559803640007009e-01  7.8198718754890140e-01  8.0761331350121612e-01  1.0057955362000004e+00  1.0027630058330506e+00  1.0022794579166017e+00  1.0026268271034022e+00  1.0018648855017949e+00  1.0016640584285252e+00  1.0015792180225727e+00  1.0015749176302147e+00  1.0023070667419349e+00  1.0033726698453767e+00  1.0037015557371838e+00  1.0040887014584916e+00  1.0055918969660096e+00  1.0059958748910616e+00  1.0053682006047182e+00  1.0056461540906887e+00  3.7066780179881944e-03  1.0322660500144467e-02  1.3795047617956325e-02  1.4122365644057038e-02  1.7881876024272748e-02  1.7546086549530916e-02  1.7110031211181438e-02  1.3543086608990061e-03  -1.0680624955114041e-02  -8.7584140731511580e-04  3.6014104097603968e-03  1.3143059403946662e-03  -3.5071251415243400e-02  -1.1999798608539650e-01  -6.9822593927306373e-02  -7.2031805696327472e-02  9.9822829265589941e-01  9.9799765881275015e-01  9.9908203036530419e-01  9.9969496298422378e-01  9.9935598761305811e-01  9.9932133839470472e-01  1.0004886583387418e+00  1.0001338656879462e+00  1.0001204708764226e+00  1.0002311694332930e+00  1.0005653626423696e+00  1.0010816451186006e+00  9.9898202763962152e-01  9.9877986500083649e-01  9.9894728889155882e-01  9.9902185323976400e-01  3.5671499889417124e-01  3.8614750384841512e-01  4.0072517371975286e-01  4.0089724130772370e-01  4.3021716950153055e-01  4.7999746482571914e-01  5.2315460173970263e-01  5.6749079907286049e-01  5.8417066875988988e-01  6.2754368791674009e-01  6.7911797669589735e-01  6.6350234980628997e-01  6.0208542463678183e-01  5.6426038025967906e-01  5.5070311538980221e-01  5.1074435716557887e-01  3.0384181872798477e-01  3.6451854312140192e-01  3.8711423408322077e-01  3.9980574687279857e-01  4.1113802721767806e-01  4.2562531294053318e-01  4.4222933860130265e-01  4.5594415114044717e-01  4.6360695898373627e-01  4.5555842323251688e-01  4.5193785379990831e-01  4.4788757953431274e-01  4.4029235482659457e-01  4.1168171222974265e-01  3.2968765465026195e-01  1.4618470302643330e-01  9.5565352134985826e-01  9.6776291872849729e-01  9.8099344355691853e-01  9.9290281211586151e-01  1.0005605544995713e+00  1.0010519750622238e+00  9.9794314170175791e-01  9.9524711828308787e-01  9.8917511640590761e-01  9.8585818699680094e-01  9.8209186311090713e-01  9.7828732237113114e-01  9.7915264333121688e-01  9.6783071771484142e-01  8.7972179940635375e-01  9.1356235676388131e-01  6.8192893924216313e-01  7.6490879955970570e-01  8.7576467885829212e-01  9.2719846400622508e-01  9.5397459950431662e-01  9.5785996854280431e-01  9.6784998864435190e-01  9.7153456583851661e-01  9.6859981831599573e-01  9.6514976332152869e-01  9.6698389155116526e-01  9.7617727450188141e-01  9.7169527166878611e-01  9.6881837500871870e-01  8.0976131310339694e-01  4.4172542944321358e-01  5.8058108555968868e-01  5.9663375349543790e-01  5.9426428809242271e-01  6.3738052221149655e-01  7.0791212149660709e-01  7.0768896029019668e-01  6.8345992102603292e-01  6.6921018295360835e-01  6.4468217113157344e-01  7.0714184772164379e-01  6.8910106909168767e-01  6.9185375382240577e-01  6.4073413971693394e-01  6.1353471351919675e-01  5.7845400500228006e-01  4.5593584435995227e-01  3.6685090237925333e-01  3.8880475424654165e-01  4.0310891043148506e-01  4.1189699763564713e-01  5.4040274464784321e-01  6.3563152640740284e-01  6.3616461977232097e-01  6.4534594534677292e-01  6.0668369115851994e-01  5.7002071522282405e-01  5.0303546511697816e-01  4.4803824887281324e-01  5.5545509539847626e-01  4.8728152408064412e-01  4.7313544994283357e-01  4.5265029714323984e-01  1.0175720591470632e+00  1.0196022703052465e+00  1.0205177605904758e+00  1.0131037140811043e+00  1.0108143738879609e+00  1.0100070841593449e+00  1.0086380236056331e+00  1.0079968504916013e+00  1.0087859602327764e+00  1.0083460187987630e+00  1.0096175677730370e+00  1.0054759162300275e+00  5.9680513946042635e-01  1.2399684348717654e-01  -2.0180559762574588e-02  5.5036671970761986e-01  3.6248149390153100e-01 