<?xml version="1.0"?>
<VTKFile type="UnstructuredGrid"  version="0.1"  >
<UnstructuredGrid>
<Piece  NumberOfPoints="1000" NumberOfCells="1898">
<Points>
<DataArray  type="Float64"  NumberOfComponents="3"  format="ascii">2 0 0  -2 0 0  0 2 0  0 -2 0  1.996053456837716 0.1255810393578731 0  1.984229402555223 0.2506664677122601 0  1.964574501275595 0.3747626301243862 0  1.937166321927573 0.4973797756137629 0  1.902113032058523 0.6180339903865582 0  1.859552970992176 0.7362491073503388 0  1.809654103857358 0.8515585854139588 0  1.752613358719046 0.9635073506930532 0  1.68865584926965 1.071653592690939 0  1.618033986646649 1.175570507479816 0  1.541026482962232 1.274847982627361 0  1.457937251802713 1.369094215094766 0  1.369094208649911 1.457937257854835 0  1.274847976447934 1.541026488074299 0  1.175570501763435 1.618033990799842 0  1.071653587205369 1.688655852750899 0  0.9635073455924 1.752613361523153 0  0.8515585806796591 1.80965410608515 0  0.7362491032109458 1.859552972631078 0  0.6180339868872777 1.902113033195508 0  0.4973797728345091 1.937166322641164 0  0.3747626280351212 1.964574501674144 0  0.2506664663712131 1.984229402724637 0  0.1255810386902028 1.996053456879722 0  -0.1255810393578731 1.996053456837716 0  -0.2506664677122601 1.984229402555223 0  -0.3747626301243862 1.964574501275595 0  -0.4973797756137629 1.937166321927573 0  -0.6180339903865582 1.902113032058523 0  -0.7362491073503388 1.859552970992176 0  -0.8515585854139588 1.809654103857358 0  -0.9635073506930532 1.752613358719046 0  -1.071653592690939 1.68865584926965 0  -1.175570507479816 1.618033986646649 0  -1.274847982627361 1.541026482962232 0  -1.369094215094766 1.457937251802713 0  -1.457937257854835 1.369094208649911 0  -1.541026488074299 1.274847976447934 0  -1.618033990799842 1.175570501763435 0  -1.688655852750899 1.071653587205369 0  -1.752613361523153 0.9635073455924 0  -1.80965410608515 0.8515585806796591 0  -1.859552972631078 0.7362491032109458 0  -1.902113033195508 0.6180339868872777 0  -1.937166322641164 0.4973797728345091 0  -1.964574501674144 0.3747626280351212 0  -1.984229402724637 0.2506664663712131 0  -1.996053456879722 0.1255810386902028 0  -1.996053456837716 -0.1255810393578731 0  -1.984229402555223 -0.2506664677122601 0  -1.964574501275595 -0.3747626301243862 0  -1.937166321927573 -0.4973797756137629 0  -1.902113032058523 -0.6180339903865582 0  -1.859552970992176 -0.7362491073503388 0  -1.809654103857358 -0.8515585854139588 0  -1.752613358719046 -0.9635073506930532 0  -1.68865584926965 -1.071653592690939 0  -1.618033986646649 -1.175570507479816 0  -1.541026482962232 -1.274847982627361 0  -1.457937251802713 -1.369094215094766 0  -1.369094208649911 -1.457937257854835 0  -1.274847976447934 -1.541026488074299 0  -1.175570501763435 -1.618033990799842 0  -1.071653587205369 -1.688655852750899 0  -0.9635073455924 -1.752613361523153 0  -0.8515585806796591 -1.80965410608515 0  -0.7362491032109458 -1.859552972631078 0  -0.6180339868872777 -1.902113033195508 0  -0.4973797728345091 -1.937166322641164 0  -0.3747626280351212 -1.964574501674144 0  -0.2506664663712131 -1.984229402724637 0  -0.1255810386902028 -1.996053456879722 0  0.1255810393578731 -1.996053456837716 0  0.2506664677122601 -1.984229402555223 0  0.3747626301243862 -1.964574501275595 0  0.4973797756137629 -1.937166321927573 0  0.6180339903865582 -1.902113032058523 0  0.7362491073503388 -1.859552970992176 0  0.8515585854139588 -1.809654103857358 0  0.9635073506930532 -1.752613358719046 0  1.071653592690939 -1.68865584926965 0  1.175570507479816 -1.618033986646649 0  1.274847982627361 -1.541026482962232 0  1.369094215094766 -1.457937251802713 0  1.457937257854835 -1.369094208649911 0  1.541026488074299 -1.274847976447934 0  1.618033990799842 -1.175570501763435 0  1.688655852750899 -1.071653587205369 0  1.752613361523153 -0.9635073455924 0  1.80965410608515 -0.8515585806796591 0  1.859552972631078 -0.7362491032109458 0  1.902113033195508 -0.6180339868872777 0  1.937166322641164 -0.4973797728345091 0  1.964574501674144 -0.3747626280351212 0  1.984229402724637 -0.2506664663712131 0  1.996053456879722 -0.1255810386902028 0  0 1.875000000000347 0  0 1.750000000000694 0  0 1.625000000001042 0  0 1.500000000001389 0  0 1.375000000001736 0  0 1.250000000002083 0  0 1.125000000002431 0  0 1.000000000002778 0  0 0.8750000000031248 0  0 0.7500000000034714 0  0 0.6250000000038181 0  0 0.5000000000041651 0  0 0.3750000000045119 0  0 0.2500000000048588 0  0 0.1250000000052054 0  0 5.509148692794952e-12 0  0 -0.1249999999947944 0  0 -0.2499999999951412 0  0 -0.3749999999954885 0  0 -0.4999999999958358 0  0 -0.6249999999961826 0  0 -0.7499999999965299 0  0 -0.8749999999968767 0  0 -0.9999999999972236 0  0 -1.124999999997571 0  0 -1.249999999997918 0  0 -1.374999999998265 0  0 -1.499999999998612 0  0 -1.624999999998959 0  0 -1.749999999999306 0  0 -1.874999999999653 0  0.1082566336411304 -0.06249721138958328 0  1.769978925506156 0.6331774562186441 0  1.903135250199003 -0.0421944281877976 0  1.792767445305666 -0.6282195673649206 0  0.1078956266195906 0.4379732200456621 0  0.1081271557368096 -0.5626689135955911 0  1.497668507878613 1.144813795188484 0  1.495381822911744 -1.145186948587215 0  0.1077698321064012 0.9381801610794744 0  1.157591104880423 -1.496075542580389 0  1.15761904203644 1.496061189440118 0  0.107575378454425 -0.9379662415906492 0  0.1074881112432003 1.313364166073589 0  0.1073778204410697 -1.313431641428223 0  0.8581342293190556 1.6841832595155 0  0.8581342337129338 -1.684183256634205 0  1.851368580255463 0.2906826398251708 0  0.5249232492507638 1.815716715781448 0  0.5247778178913532 -1.815859379803398 0  0.1082353668846179 -0.3125509518049559 0  0.1080661273743536 0.1877645712619083 0  0.1078389931990292 0.6880769333414208 0  0.1073280526202888 1.563564970749537 0  0.107160679408544 -1.563615704201531 0  1.331581140402051 1.343190159103474 0  1.626802386652038 -0.9547108573666147 0  1.331552991861951 -1.343226601516206 0  1.631290071630766 0.9577989114228483 0  1.84669162712044 -0.4306457728829043 0  0.2975456488863658 1.873063487819802 0  0.2974751810617229 -1.873107343544094 0  0.09992055001738553 1.810702223800652 0  0.09984374948150972 -1.810705277930003 0  0.1082634647023108 -0.1875124211170647 0  0.2165510801728112 -0.1250032029974569 0  0.2165375172674545 4.221557482128871e-05 0  0.3248562165324149 -0.06247441291907704 0  0.3248585342277372 -0.1875624957204239 0  0.4332059573819909 -0.1250129595067874 0  0.4331985536034745 -0.250149813714412 0  0.5415852610461236 -0.1875723568446455 0  0.5415782023182074 -0.06241747692835881 0  0.5415829075105126 -0.3127317546530641 0  0.6499951624913161 -0.1249882924353291 0  0.6499156431939851 0.0003411059576302356 0  0.7584280238324674 -0.0623683986668593 0  0.7583381724307633 0.06301562139675367 0  0.8668942700507976 0.0002683876425051863 0  0.866904510818723 -0.1250308766382796 0  0.8668767636421114 0.1255591576030338 0  0.9754116371444833 0.0628928043742497 0  0.9754021224577029 0.1881893631214195 0  0.8668629130281992 0.2508426644318986 0  0.9753569972839978 0.3135148713980606 0  0.866839831793855 0.3761708347018111 0  0.9753431037724689 0.4388429871445935 0  0.866814648621348 0.5015010374276645 0  1.08393778919224 0.1255687039628436 0  0.9753369371520746 0.5641756407549315 0  0.8667849648470651 0.6268301269324548 0  0.9753189275771859 0.6895148186252987 0  0.8667545615587615 0.7521740478557806 0  1.08385809393457 0.5015670232038342 0  0.758249404512794 0.5641705835239291 0  0.975302017944805 0.814871697805804 0  0.8667237648340388 0.8775175004498103 0  0.7581711938478721 0.8148596678356821 0  0.758152425351844 0.9401730681893621 0  0.8666825215745161 1.002861206150922 0  0.7581094324766745 1.065502470213594 0  0.758328044826707 0.3134677110852433 0  1.083954067831041 0.0001938695472883667 0  1.19252231816974 0.06290459522933686 0  1.19252567041104 -0.06251801314282313 0  1.301128126712873 0.0001827802610413903 0  1.301130552695204 -0.1252317881558162 0  1.301115330419242 0.1256342297122375 0  1.192511328347185 -0.1879356955324901 0  1.301122730134966 -0.2506554158895156 0  1.192479750429495 -0.3133640044251623 0  1.301109212144929 -0.376083371131565 0  1.192456591795897 -0.4387979527390329 0  1.301099955648029 -0.5015268693521127 0  1.192451042906288 -0.5642305205519469 0  1.083808608024566 -0.5015171362738394 0  1.083797611734733 -0.6269374026706226 0  1.192424372222687 -0.6896688318832552 0  1.083773414310783 -0.7523626977114914 0  0.9751635753458996 -0.6896283291284873 0  0.9751313738428584 -0.8150333902436167 0  0.8665379607358412 -0.7522956549768351 0  0.866507412012517 -0.8776920507112558 0  0.7579364824946339 -0.8149685185678733 0  0.7579105028675454 -0.9403375519043209 0  0.8664591563359163 -1.003063911606668 0  0.7578566498173244 -1.06570761780405 0  0.3248448173131987 0.06260863083124135 0  1.083893067089233 0.7522053392182682 0  0.6495916017573917 1.002804704420728 0  0.6495390695087485 1.128124720958234 0  0.6493286086035562 -1.002983876189425 0  0.6492444751237343 -1.12835303640501 0  1.083873907579097 0.8776032265043791 0  1.083719561562728 -0.8777731949711265 0  0.7580709241722678 1.190851653093661 0  0.649469894045057 1.253474513631031 0  0.7578032938091362 -1.191084253213334 0  0.6491623390451466 -1.253731681537431 0  1.409747204836514 -0.1879373177366649 0  1.40975761403562 0.06289241900658486 0  1.409749567615142 0.1883618295687293 0  1.192505181992844 0.8149134925192071 0  0.54105335710638 1.065408377512265 0  0.5411037179786489 0.9401445256473224 0  0.5407475291886857 -1.065617554551859 0  0.5408198401311859 -0.9403086694595302 0  0.8665959699553137 -0.6267497636797308 0  1.409760301898612 -0.4388112271479134 0  1.409753025387469 -0.5642873312765931 0  1.518426999819115 0.1256101644706334 0  1.518414924029519 0.2511054618769016 0  1.409727051028622 0.3138377764034209 0  0.4331763451889839 -0.3753049428747806 0  0.5415217642104331 -0.4379040554119423 0  0.4331118399901733 -0.5004930698386724 0  0.649839
[...]
<PointData  Scalars="f_161-1"> 
<DataArray  type="Float64"  Name="f_161-1"  format="ascii">1.0000000000000000e+01  1.0000000000000000e+01  1.5000000000000000e+02  1.0000000000000000e+01  1.5000000000000000e+02  1.5000000000000000e+02  1.5000000000000000e+02  1.5000000000000000e+02  1.5000000000000000e+02  1.5000000000000000e+02  1.5000000000000000e+02  1.5000000000000000e+02  1.5000000000000000e+02  1.5000000000000000e+02  1.5000000000000000e+02  1.5000000000000000e+02  1.5000000000000000e+02  1.4999999999999997e+02  1.4999999999999997e+02  1.5000000000000000e+02  1.5000000000000000e+02  1.5000000000000000e+02  1.5000000000000000e+02  1.5000000000000000e+02  1.5000000000000000e+02  1.5000000000000000e+02  1.5000000000000000e+02  1.5000000000000000e+02  1.5000000000000000e+02  1.5000000000000000e+02  1.5000000000000000e+02  1.5000000000000000e+02  1.5000000000000000e+02  1.5000000000000000e+02  1.5000000000000000e+02  1.5000000000000000e+02  1.5000000000000000e+02  1.5000000000000000e+02  1.5000000000000000e+02  1.5000000000000000e+02  1.5000000000000000e+02  1.4999999999999997e+02  1.5000000000000000e+02  1.5000000000000000e+02  1.5000000000000000e+02  1.5000000000000000e+02  1.5000000000000000e+02  1.5000000000000000e+02  1.5000000000000000e+02  1.5000000000000000e+02  1.5000000000000000e+02  1.5000000000000000e+02  1.0000000000000002e+01  1.0000000000000000e+01  1.0000000000000000e+01  1.0000000000000000e+01  1.0000000000000000e+01  1.0000000000000000e+01  1.0000000000000000e+01  1.0000000000000000e+01  1.0000000000000000e+01  1.0000000000000000e+01  1.0000000000000000e+01  1.0000000000000000e+01  1.0000000000000000e+01  1.0000000000000000e+01  1.0000000000000000e+01  1.0000000000000000e+01  1.0000000000000000e+01  1.0000000000000000e+01  1.0000000000000000e+01  1.0000000000000000e+01  1.0000000000000000e+01  1.0000000000000000e+01  1.0000000000000000e+01  1.0000000000000000e+01  1.0000000000000000e+01  9.9999999999999982e+00  1.0000000000000000e+01  1.0000000000000000e+01  1.0000000000000000e+01  1.0000000000000000e+01  1.0000000000000000e+01  1.0000000000000002e+01  1.0000000000000000e+01  1.0000000000000000e+01  1.0000000000000000e+01  1.0000000000000000e+01  1.0000000000000000e+01  1.0000000000000000e+01  1.0000000000000000e+01  1.0000000000000000e+01  1.0000000000000000e+01  1.0000000000000000e+01  1.0000000000000000e+01  1.0000000000000000e+01  1.0000000000000000e+01  1.0000000000000000e+01  1.0000000000000000e+01  1.0000000000000000e+01  1.1365307489883499e+02  8.2962376245653218e+01  5.9316865840430061e+01  4.2035982940301757e+01  3.0110136694525828e+01  2.2273747712899016e+01  1.7325089352518926e+01  1.4298939766844489e+01  1.2494171735204270e+01  1.1438442976057484e+01  1.0829457846958414e+01  1.0481029972000446e+01  1.0282301683611850e+01  1.0168559264694974e+01  1.0102795545151976e+01  1.0064092279578361e+01  1.0040765296589315e+01  1.0026312847794895e+01  1.0017114763946203e+01  1.0011134329164573e+01  1.0007196546773292e+01  1.0004594688485941e+01  1.0002885164315243e+01  1.0001775524049849e+01  1.0001067309653289e+01  1.0000624731912616e+01  1.0000354463833274e+01  1.0000193697540640e+01  1.0000100959368275e+01  1.0000048917300512e+01  1.0000019380336951e+01  1.0065023950576231e+01  1.2040678777413702e+02  3.2371648961107603e+01  1.0548953601766859e+01  1.0446244460427721e+01  1.0011679835911917e+01  1.2281638670899424e+02  1.0030105504752012e+01  1.3798959041753969e+01  1.0002661523255812e+01  1.2450776466919017e+02  1.0002933133593933e+01  2.7658169927189864e+01  1.0000598913383019e+01  1.2406810688843701e+02  1.0000530922419083e+01  1.1048523804493944e+02  1.2366962467317865e+02  1.0000100841140165e+01  1.0027485798899610e+01  1.0163411512385196e+01  1.1293518276865008e+01  5.3598372227327154e+01  1.0000174981800409e+01  1.2437097711651423e+02  1.0095144048966420e+01  1.0008417785660034e+01  1.2424909182658176e+02  1.1803720209796406e+01  1.2442725696866583e+02  1.0000035697785737e+01  1.0128295097600275e+02  1.0000038756139313e+01  1.0042093293239283e+01  1.0074914931577595e+01  1.0114161941862234e+01  1.0139249164149680e+01  1.0093514092550993e+01  1.0179007977216664e+01  1.0121561523672332e+01  1.0235848261618722e+01  1.0342236560080153e+01  1.0159944631404025e+01  1.0453972576945786e+01  1.0649004707373463e+01  1.0863639158477051e+01  1.1215562578661839e+01  1.1619062354969691e+01  1.1141001365775169e+01  1.2241299148219866e+01  1.2982559932505721e+01  1.4055097179424990e+01  1.3055086131811343e+01  1.5417937638556401e+01  1.4143116070150478e+01  1.7194754231761600e+01  1.5641948588594635e+01  1.5382045416146321e+01  1.9585908380232073e+01  1.7763267289683959e+01  2.2888758709478928e+01  2.0817565347416711e+01  2.2184772484446576e+01  1.4576302613670968e+01  2.7514152671685277e+01  2.5234862821129568e+01  1.9457439119085961e+01  2.3798860290908195e+01  3.1578424255580430e+01  3.0170768842533594e+01  1.2336070264438121e+01  1.3915661663099891e+01  1.7033528290212757e+01  1.4988365549230172e+01  1.8891767775095524e+01  1.6047551618069981e+01  2.2321474393356777e+01  1.3361007000375315e+01  1.3870929056674106e+01  1.2148700381746409e+01  1.2341430278201919e+01  1.1306770706047040e+01  1.1346721001034807e+01  1.0759252071563623e+01  1.0711581958606949e+01  1.0416328793514579e+01  1.0423167275983419e+01  1.0234295944185270e+01  1.0223057366012920e+01  1.0126452351038887e+01  1.0117157770241263e+01  1.0066783621688410e+01  1.0060485239970994e+01  1.0034617751416127e+01  1.0036824587498081e+01  1.0019183688507606e+01  1.0208392089884972e+01  3.0841589765481434e+01  2.3060348505702020e+01  2.9630851264991708e+01  1.0017653680316883e+01  1.0009812930408282e+01  3.7593097887965783e+01  1.0127132714151035e+01  3.9322082269562713e+01  3.9188469066579692e+01  1.0010284237404482e+01  1.0005275177704391e+01  1.6802477354975082e+01  2.5463693110976248e+01  3.0965151163818888e+01  4.2649906253480779e+01  2.2927321653883318e+01  1.8333430934813610e+01  1.0008879300177947e+01  1.0015454268180896e+01  1.0198748749327963e+01  1.2309464638622520e+01  1.1247948168092902e+01  3.6178120412578082e+01  4.4459741944347321e+01  3.6843408974386747e+01  1.0081461673426176e+01  1.0106095140655247e+01  1.0053548447184863e+01  1.0208485366910621e+01  5.2054251475265112e+01  5.2054406872610592e+01  5.2592236902217380e+01  4.0088952615072778e+01  5.2840908061020144e+01  5.4458770023362085e+01  1.0005310907335545e+01  1.0002728078401441e+01  1.0002657850353181e+01  1.0010097600122167e+01  1.0001373382244225e+01  5.2610512139048424e+01  4.3113230059858886e+01  5.9262891061957660e+01  1.0068595620871475e+01  1.0034404400988700e+01  1.8411245481569832e+01  1.5262848614623064e+01  4.2018289940275089e+01  5.7666833823666501e+01  1.0007698785899645e+01  1.0001320936756850e+01  1.0000679103294868e+01  4.9484485528261516e+01  6.9133483471258003e+01  1.0004951515230148e+01  6.0875139248662599e+01  1.1998396092896245e+01  1.1007179805736445e+01  7.4341630412554508e+01  7.0820445373757792e+01  1.0009126820375217e+01  1.0001345653563536e+01  7.0508359272157861e+01  6.8653367051062688e+01  5.2999683749235203e+01  4.0703551402291531e+01  1.0013025475450974e+01  1.0002459854991780e+01  3.0897156467383379e+01  1.0026119891409873e+01  1.5365567975921927e+01  1.3293924171008070e+01  1.3475586120963722e+01  1.2076538688184709e+01  1.2279168338667573e+01  1.1326803414796474e+01  1.1519460917998240e+01  1.0862923391437800e+01  1.1030949631948854e+01  1.1828547086843679e+01  1.0646461656216877e+01  1.0492765477116881e+01  4.6706672266902700e+01  6.4239102023750291e+01  1.0018685499685454e+01  1.0016138028708513e+01  1.3794862818961228e+01  1.0033563240588771e+01  3.0614073603024163e+01  1.0041461007156594e+01  3.5672543924830698e+01  1.1235973225120059e+01  1.3301051590075174e+01  4.4951907355304868e+01  6.2188258064149039e+01  1.0000654831926319e+01  1.0000333920555086e+01  6.0049949812330830e+01  1.0485403620870409e+01  1.0322763259321952e+01  8.0980644906197497e+01  1.0027946030150218e+01  1.0058465461130153e+01  1.2984246486153086e+01  1.5869700836975444e+01  1.0571982852234754e+01  1.0488897393955421e+01  5.5028230984448051e+01  7.4257114331058133e+01  5.8448664982876977e+01  8.2124601484378715e+01  1.0006494123894880e+01  1.0010732803963979e+01  1.0003834443665664e+01  7.8175094421343530e+01  1.0000330592734166e+01  1.0004237061073896e+01  8.9350830567099507e+01  1.0046324651666191e+01  1.0098011576166396e+01  8.8664859204764298e+01  1.0002390945297831e+01  8.3623990306986258e+01  1.0000166910151378e+01  8.4272046882356079e+01  4.1009499993755306e+01  2.9304422690495937e+01  2.6730228883772753e+01  1.0671330355107569e+01  1.0189623508255326e+02  9.9591333730895187e+01  9.0625535495586547e+01  1.1350115473196770e+02  1.0001689376982224e+01  1.0013169047505770e+01  1.0288259672251803e+01  6.2252838558322182e+01  1.0043135423471142e+01  1.0085626868612579e+01  1.0316618829262952e+01  1.0709768100086208e+01  6.7622450072519442e+01  1.1842720444534644e+01  1.0000168136541081e+01  1.0003304782425289e+01  1.0001950264584368e+01  1.3883956139579471e+01  1.0021514983087487e+01  1.0017229695624868e+01  1.0008795268936250e+01  1.0279007191905157e+01  1.0052063120589075e+01  1.0102526211324452e+01  2.3351414084009267e+01  1.8865737669374401e+01  1.0001224753424358e+01  1.0000620219035605e+01  3.2644898149015035e+01  3.5087045609581352e+01  2.4295087569566739e+01  1.9636364537925047e+01  1.5812232709475564e+01  1.0013847671535430e+01  1.0026996801542630e+01  1.0004942616156825e+01  1.2011573491402055e+01  1.2060074427466038e+01  1.0770093427640031e+01  1.0736383335104501e+01  1.0379474956414843e+01  1.0620807491511746e+01  1.1166544656471279e+01  1.0976083097634444e+01  1.0512367716866633e+01  1.0778538842128745e+01  1.0325201693105951e+01  1.5419185272370385e+01  1.0062596651363732e+01  1.1688301442817366e+01  1.0030779563604019e+01  1.2737027540282840e+01  2.6227876745333244e+01  2.2354042610242747e+01  2.9883978771186285e+01  1.0002207168394548e+01  1.0385186133046382e+01  1.0918029465149537e+01  1.8662371784981755e+01  1.6536594170997812e+01  1.0032699332150889e+01  2.8243983402366432e+01  1.9480285970279819e+01  1.0226985584678694e+01  3.5489142885524053e+01  1.0102036183109877e+01  1.1472502416822199e+01  1.0265050961306573e+01  1.0004426275205129e+01  1.0740960222488921e+01  1.0600330281753935e+01  1.0069245617642052e+01  1.0219760461827152e+01  1.0093368450564849e+01  1.3251420650339288e+01  1.0007152421674860e+01  6.4235305347485479e+01  1.1449780214495366e+01  1.1662663527144803e+01  1.4075428416855273e+01  9.5152796203862408e+01  9.8641152135974423e+01  1.2653777703116537e+01  7.1575255042921739e+01  8.5992895463789338e+01  2.0631314122789327e+01  1.2133451158343867e+01  3.3987837419396890e+01  1.0262007694075859e+01  9.3644858822754614e+01  1.0311543354826187e+01  2.5872506700947586e+01  1.0002625772859881e+01  1.0019636699246529e+01  4.0533930149060183e+01  6.8874926123669653e+01  1.0049520887648047e+01  1.6851273230172819e+01  1.0000672784217802e+01  1.0000601662097228e+01  7.3624928377848391e+01  9.2885026147790512e+01  1.0391828398273013e+01  1.5769857899145446e+01  1.0176627521337306e+01  1.1296377747671855e+01  1.0001130164849007e+01  7.8015617107379853e+01  9.3708769789735143e+01  1.7171127288858756e+01  1.0036641217066236e+01  4.2937598939836491e+01  1.0017972480848313e+01  1.9380155838954391e+01  2.5782976324606466e+01  2.1624815490923936e+01  1.0021448594431893e+01  1.0066620660529992e+01  5.8772073772610341e+01  3.0031837962927501e+01  1.0117564390362128e+01  7.8947993776348952e+01  2.1017945621907444e+01  1.0200161941829609e+01  1.0405427173244840e+01  1.0135620980185678e+01  9.5520567425560515e+01  1.0007503596176797e+01  4.1792790120482216e+01  5.0123733070292715e+01  1.0168010698604606e+01  6.9921100071999405e+01  1.0004742971475521e+01  1.8399016268438388e+01  2.0475363110782428e+01  1.0267148088715247e+01  1.0448874505683863e+01  1.0756489784604371e+01  1.1226843678346592e+01  1.2220991199725987e+01  1.3468808309554369e+01  9.7153104406046154e+01  1.2045355184153050e+02  1.6441882390717314e+01  1.0005457657512304e+01  1.0000299791121854e+01  1.0000197968388161e+01  2.0777427590120343e+01  1.0001775272313845e+01  1.0001047449012777e+01  2.5720451749396403e+01  1.0001120168171983e+01  3.8177085042903038e+01  4.8778363248218668e+01  1.0000331296946666e+01  7.4724634589446239e+01  1.0000331759254406e+01  9.5839410740433976e+01  1.0000087546397619e+01  1.0000071521146868e+01  1.0327680180836154e+01  1.0153477595604746e+01  1.0673495503107321e+02  1.0903633800298299e+02  1.3966934617313431e+01  1.2118687913823581e+02  1.0000153051899151e+01  1.0068623436085295e+01  1.0154208365883078e+02  1.2582865579231051e+02  1.0004649540918980e+01  1.0014738474557344e+01  1.2505623364627344e+02  1.0645889428791568e+02  1.4092319605706070e+01  1.0000372006020040e+01  1.1904858702354913e+02  1.2533489452287021e+02  1.2450430327391592e+02  1.0000022335175636e+01  1.0000054991099541e+01  1.2650394636490577e+02  1.0022594728947810e+01  1.0216800978408482e+02  1.0001447185392433e+01  1.2872708702994936e+02  1.0778287950401136e+01  1.2832243284091089e+02  1.0038349189175049e+01  1.3035607068520656e+02  1.0125745610555082e+01  1.0659588845700699e+02  1.0034869631458641e+01  1.2588075398871339e+02  1.0000015508105410e+01  1.0003312488575595e+01  1.0902412559672398e+02  1.2910104560453357e+02  1.0000652297375876e+01  1.0576692019861073e+02  1.0000089250997675e+01  1.0864165644547822e+02  1.0001213944964068e+01  1.3296805411360236e+02  8.3778570559157046e+01  3.4257188242565007e+01  7.2254195883014617e+01  1.0881458668714583e+01  9.9975297916180086e+00  1.0000425462134277e+01  2.6145580462180732e+01  5.2069585480209007e+01  9.9996474429163893e+00  9.9903219188861243e+00  1.0000278746789991e+01  4.0560787066515445e+01  1.0000022066252962e+01  4.6734236226920480e+01  1.0000183417424505e+01  1.0029579392196576e+01  1.0000056877860368e+01  1.0803244501411646e+01  1.0000133241143466e+01  4.5874483352235579e+01  1.0010357517032647e+01  1.0000083402591219e+01  4.6163641398342932e+01  9.9945287909754228e+00  9.9990026329074624e+00  9.9999151943279756e+00  1.0000048297274956e+01  1.3949868250877357e+01  1.0000221663068675e+01  4.1322750397674881e+01  4.6135505355026460e+01  1.0000328860454193e+01  4.9040059969451868e+01  1.0000049965006799e+01  4.9347242174943382e+01  1.0000030665756022e+01  3.2701525800501571e+01  9.9984115691931095e+00  1.0000284470665029e+01  1.0000256165421975e+01  1.0000362463544258e+01  1.0000337585724365e+01  1.0000371736455907e+01  1.0000352370942183e+01  1.0000399587707172e+01  1.0000420755413348e+01  1.0000377455861829e+01  1.0000448177205802e+01  1.0000470897360726e+01  1.0000499436744864e+01  1.0000523884590631e+01  1.0000553439310787e+01  1.0000526045690066e+01  1.0000579868276144e+01  1.0000613796547960e+01  1.0000642685525788e+01  1.0000605840405102e+01  1.0000665301752589e+01  1.0000632263345267e+01  1.0000673762536094e+01  1.0000653173105473e+01  1.0000627462227255e+01  1.0000733541201233e+01  1.0000640808289708e+01  1.0000978127364492e+01  1.0000616969916907e+01  1.0000600000636902e+01  1.0000997004227742e+01  1.0000875307935800e+01  1.0000572468289228e+01  9.9996158703429074e+00  1.0000296646235688e+01  1.0000550512693353e+01  1.0000663595830535e+01  9.9987108970550445e+00  1.0000610836482920e+01  1.0000954541025328e+01  1.0000781670062830e+01  1.0000063305244939e+01  1.0000647128398878e+01  1.0000645332276179e+01  1.0000760791523581e+01  1.0000585149463769e+01  1.0000632750276710e+01  1.0000553686032687e+01  1.0000561307496453e+01  1.0000517318940220e+01  1.0000504180541130e+01  1.0000468568835375e+01  1.0000478227374309e+01  1.0000433857790089e+01  1.0000423314397155e+01  1.0000391818832162e+01  1.0000380337141465e+01  1.0000351667647831e+01  1.0000339316047173e+01  1.0000313127275566e+01  1.0000323961497257e+01  1.0000287841989719e+01  1.0000297456563207e+01  1.0000263659010384e+01  1.0000440831819731e+01  1.0000391915308855e+01  1.0000768982008639e+01  1.0000362588175804e+01  9.9994488539902253e+00  1.0000299944187468e+01  1.0000252849657183e+01  1.0000230739572492e+01  9.9960181242402779e+00  9.9953699254355044e+00  1.0000240715424985e+01  1.0000209733716233e+01  9.9989228244131709e+00  1.0000437454748420e+01  9.9994671884151156e+00  1.0000483766944502e+01  1.0000324578254180e+01  1.0000218870288856e+01  1.0000744646079701e+01  1.0000409706715628e+01  1.0000503362805761e+01  1.0000117343135978e+01  1.0000699506366873e+01  1.0000490855173831e+01  1.0000284657405551e+01  1.0017798534811639e+01  1.0000443854408273e+01  1.0000307764636572e+01  1.0000332264775421e+01  1.0000304658528114e+01  1.0000331986983161e+01  1.0000337907793481e+01  1.0052810465450330e+01  1.0088722948468078e+01  1.0051980220215320e+01  9.9965418986315804e+00  1.0088471581639757e+01  1.0000218974355498e+01  1.0000189782194045e+01  1.0000179458616156e+01  1.0000161248681415e+01  1.0076293626185713e+01  1.0066958744995464e+01  1.0000484371915865e+01  1.0047819807054115e+01  1.0018437197176393e+01  1.0000309430065252e+01  1.0000492487626857e+01  1.0000431581512801e+01  1.0000434576790724e+01  1.0000426382672471e+01  1.0000737819533457e+01  1.0001506897230422e+01  1.0057881968231010e+01  1.0000149841456098e+01  1.0000133209121019e+01  1.0000267302951345e+01  1.0000245981959353e+01  9.8896925122705106e+00  1.0000341050397152e+01  9.6822061344533168e+00  9.5637137668293590e+00  1.0000171640540973e+01  9.8825682765484366e+00  1.0044240225750109e+01  9.4926064420552656e+00  1.0000443311563307e+01  1.0000481821107416e+01  1.0000519709728891e+01  1.0000288943561106e+01  1.0000354586339343e+01  1.0000400035014719e+01  1.0000763263206451e+01  1.0000167325631685e+01  9.9996596530477202e+00  1.0000349677079369e+01  1.0000532021644117e+01  1.0000572027455361e+01  1.0051696608008266e+01  9.6144830709504987e+00  9.8798333765926944e+00  1.0074997918452301e+01  9.4194873222304789e+00  1.0000248652282297e+01  1.0000226761971884e+01  1.0000255493640561e+01  1.0004702862300199e+01  9.8277376841580555e+00  1.0001059472187405e+01  1.0000250019091080e+01  1.0000271181254995e+01  1.0002512899035901e+01  1.0011200845694903e+01  1.0000121105270468e+01  1.0000105891303825e+01  9.8142732253488489e+00  1.0000448521302561e+01  1.0001523278475291e+01  1.0000240015839010e+01  1.0000205084680685e+01  9.9991556991639801e+00  1.0000576820773578e+01  1.0000620836347025e+01  1.0000061889066112e+01  1.0000391680156023e+01  1.0006616619897686e+01  1.0000407896769698e+01  1.0000368218277490e+01  1.0000406939318834e+01  1.0000406517370996e+01  9.9955728889370761e+00  1.0053876063150499e+01  9.4188679578198489e+00  9.4436412298237506e+00  1.0000117860728460e+01  1.0000313933385844e+01  1.0000234093324638e+01  9.1968025925159207e+00  1.0000342958798074e+01  9.0648949605916211e+00  1.0000208515575256e+01  9.5537983682706429e+00  1.0000092599826939e+01  8.5569678684130661e+00  9.6696084988889890e+00  8.6574777437326560e+00  1.0000510253695037e+01  1.0019996341891188e+01  9.5885403309625836e+00  1.0000658299941131e+01  2.2159164094390302e+01  1.0000195211717072e+01  1.0796404195539619e+01  1.6282366258418957e+01  1.0000449131240508e+01  1.0000394817654705e+01  3.0697706162470404e+01  1.0000263624246747e+01  1.0000374930310938e+01  1.0000420773619991e+01  1.0000447717526111e+01  1.0000468945323146e+01  1.0000310624688627e+01  1.0000292674467048e+01  1.0000314689979025e+01  1.0000439380395335e+01  1.0000079705965490e+01  9.3938497788055049e+00  1.0000233724874686e+01  9.9981563992542224e+00  1.0000225191812568e+01  1.0000190018524469e+01  1.0000171479969863e+01  1.0000157470956664e+01  1.0000140143789643e+01  1.0000209329139983e+01  1.0000229383764784e+01  1.0000194737065756e+01  1.0000331205030534e+01  1.0000487790689776e+01  1.0000393448583983e+01  1.0000137075265121e+01  1.0000108250997613e+01  1.0000472029681452e+01  1.0003112431779833e+01  9.8600155807723322e+00  1.0000945270118851e+01  1.00020926836