<?xml version="1.0"?>
<VTKFile type="UnstructuredGrid"  version="0.1"  >
<UnstructuredGrid>
<Piece  NumberOfPoints="1000" NumberOfCells="1898">
<Points>
<DataArray  type="Float64"  NumberOfComponents="3"  format="ascii">2 0 0  -2 0 0  0 2 0  0 -2 0  1.996053456837716 0.1255810393578731 0  1.984229402555223 0.2506664677122601 0  1.964574501275595 0.3747626301243862 0  1.937166321927573 0.4973797756137629 0  1.902113032058523 0.6180339903865582 0  1.859552970992176 0.7362491073503388 0  1.809654103857358 0.8515585854139588 0  1.752613358719046 0.9635073506930532 0  1.68865584926965 1.071653592690939 0  1.618033986646649 1.175570507479816 0  1.541026482962232 1.274847982627361 0  1.457937251802713 1.369094215094766 0  1.369094208649911 1.457937257854835 0  1.274847976447934 1.541026488074299 0  1.175570501763435 1.618033990799842 0  1.071653587205369 1.688655852750899 0  0.9635073455924 1.752613361523153 0  0.8515585806796591 1.80965410608515 0  0.7362491032109458 1.859552972631078 0  0.6180339868872777 1.902113033195508 0  0.4973797728345091 1.937166322641164 0  0.3747626280351212 1.964574501674144 0  0.2506664663712131 1.984229402724637 0  0.1255810386902028 1.996053456879722 0  -0.1255810393578731 1.996053456837716 0  -0.2506664677122601 1.984229402555223 0  -0.3747626301243862 1.964574501275595 0  -0.4973797756137629 1.937166321927573 0  -0.6180339903865582 1.902113032058523 0  -0.7362491073503388 1.859552970992176 0  -0.8515585854139588 1.809654103857358 0  -0.9635073506930532 1.752613358719046 0  -1.071653592690939 1.68865584926965 0  -1.175570507479816 1.618033986646649 0  -1.274847982627361 1.541026482962232 0  -1.369094215094766 1.457937251802713 0  -1.457937257854835 1.369094208649911 0  -1.541026488074299 1.274847976447934 0  -1.618033990799842 1.175570501763435 0  -1.688655852750899 1.071653587205369 0  -1.752613361523153 0.9635073455924 0  -1.80965410608515 0.8515585806796591 0  -1.859552972631078 0.7362491032109458 0  -1.902113033195508 0.6180339868872777 0  -1.937166322641164 0.4973797728345091 0  -1.964574501674144 0.3747626280351212 0  -1.984229402724637 0.2506664663712131 0  -1.996053456879722 0.1255810386902028 0  -1.996053456837716 -0.1255810393578731 0  -1.984229402555223 -0.2506664677122601 0  -1.964574501275595 -0.3747626301243862 0  -1.937166321927573 -0.4973797756137629 0  -1.902113032058523 -0.6180339903865582 0  -1.859552970992176 -0.7362491073503388 0  -1.809654103857358 -0.8515585854139588 0  -1.752613358719046 -0.9635073506930532 0  -1.68865584926965 -1.071653592690939 0  -1.618033986646649 -1.175570507479816 0  -1.541026482962232 -1.274847982627361 0  -1.457937251802713 -1.369094215094766 0  -1.369094208649911 -1.457937257854835 0  -1.274847976447934 -1.541026488074299 0  -1.175570501763435 -1.618033990799842 0  -1.071653587205369 -1.688655852750899 0  -0.9635073455924 -1.752613361523153 0  -0.8515585806796591 -1.80965410608515 0  -0.7362491032109458 -1.859552972631078 0  -0.6180339868872777 -1.902113033195508 0  -0.4973797728345091 -1.937166322641164 0  -0.3747626280351212 -1.964574501674144 0  -0.2506664663712131 -1.984229402724637 0  -0.1255810386902028 -1.996053456879722 0  0.1255810393578731 -1.996053456837716 0  0.2506664677122601 -1.984229402555223 0  0.3747626301243862 -1.964574501275595 0  0.4973797756137629 -1.937166321927573 0  0.6180339903865582 -1.902113032058523 0  0.7362491073503388 -1.859552970992176 0  0.8515585854139588 -1.809654103857358 0  0.9635073506930532 -1.752613358719046 0  1.071653592690939 -1.68865584926965 0  1.175570507479816 -1.618033986646649 0  1.274847982627361 -1.541026482962232 0  1.369094215094766 -1.457937251802713 0  1.457937257854835 -1.369094208649911 0  1.541026488074299 -1.274847976447934 0  1.618033990799842 -1.175570501763435 0  1.688655852750899 -1.071653587205369 0  1.752613361523153 -0.9635073455924 0  1.80965410608515 -0.8515585806796591 0  1.859552972631078 -0.7362491032109458 0  1.902113033195508 -0.6180339868872777 0  1.937166322641164 -0.4973797728345091 0  1.964574501674144 -0.3747626280351212 0  1.984229402724637 -0.2506664663712131 0  1.996053456879722 -0.1255810386902028 0  0 1.875000000000347 0  0 1.750000000000694 0  0 1.625000000001042 0  0 1.500000000001389 0  0 1.375000000001736 0  0 1.250000000002083 0  0 1.125000000002431 0  0 1.000000000002778 0  0 0.8750000000031248 0  0 0.7500000000034714 0  0 0.6250000000038181 0  0 0.5000000000041651 0  0 0.3750000000045119 0  0 0.2500000000048588 0  0 0.1250000000052054 0  0 5.509148692794952e-12 0  0 -0.1249999999947944 0  0 -0.2499999999951412 0  0 -0.3749999999954885 0  0 -0.4999999999958358 0  0 -0.6249999999961826 0  0 -0.7499999999965299 0  0 -0.8749999999968767 0  0 -0.9999999999972236 0  0 -1.124999999997571 0  0 -1.249999999997918 0  0 -1.374999999998265 0  0 -1.499999999998612 0  0 -1.624999999998959 0  0 -1.749999999999306 0  0 -1.874999999999653 0  0.1082566336411304 -0.06249721138958328 0  1.769978925506156 0.6331774562186441 0  1.903135250199003 -0.0421944281877976 0  1.792767445305666 -0.6282195673649206 0  0.1078956266195906 0.4379732200456621 0  0.1081271557368096 -0.5626689135955911 0  1.497668507878613 1.144813795188484 0  1.495381822911744 -1.145186948587215 0  0.1077698321064012 0.9381801610794744 0  1.157591104880423 -1.496075542580389 0  1.15761904203644 1.496061189440118 0  0.107575378454425 -0.9379662415906492 0  0.1074881112432003 1.313364166073589 0  0.1073778204410697 -1.313431641428223 0  0.8581342293190556 1.6841832595155 0  0.8581342337129338 -1.684183256634205 0  1.851368580255463 0.2906826398251708 0  0.5249232492507638 1.815716715781448 0  0.5247778178913532 -1.815859379803398 0  0.1082353668846179 -0.3125509518049559 0  0.1080661273743536 0.1877645712619083 0  0.1078389931990292 0.6880769333414208 0  0.1073280526202888 1.563564970749537 0  0.107160679408544 -1.563615704201531 0  1.331581140402051 1.343190159103474 0  1.626802386652038 -0.9547108573666147 0  1.331552991861951 -1.343226601516206 0  1.631290071630766 0.9577989114228483 0  1.84669162712044 -0.4306457728829043 0  0.2975456488863658 1.873063487819802 0  0.2974751810617229 -1.873107343544094 0  0.09992055001738553 1.810702223800652 0  0.09984374948150972 -1.810705277930003 0  0.1082634647023108 -0.1875124211170647 0  0.2165510801728112 -0.1250032029974569 0  0.2165375172674545 4.221557482128871e-05 0  0.3248562165324149 -0.06247441291907704 0  0.3248585342277372 -0.1875624957204239 0  0.4332059573819909 -0.1250129595067874 0  0.4331985536034745 -0.250149813714412 0  0.5415852610461236 -0.1875723568446455 0  0.5415782023182074 -0.06241747692835881 0  0.5415829075105126 -0.3127317546530641 0  0.6499951624913161 -0.1249882924353291 0  0.6499156431939851 0.0003411059576302356 0  0.7584280238324674 -0.0623683986668593 0  0.7583381724307633 0.06301562139675367 0  0.8668942700507976 0.0002683876425051863 0  0.866904510818723 -0.1250308766382796 0  0.8668767636421114 0.1255591576030338 0  0.9754116371444833 0.0628928043742497 0  0.9754021224577029 0.1881893631214195 0  0.8668629130281992 0.2508426644318986 0  0.9753569972839978 0.3135148713980606 0  0.866839831793855 0.3761708347018111 0  0.9753431037724689 0.4388429871445935 0  0.866814648621348 0.5015010374276645 0  1.08393778919224 0.1255687039628436 0  0.9753369371520746 0.5641756407549315 0  0.8667849648470651 0.6268301269324548 0  0.9753189275771859 0.6895148186252987 0  0.8667545615587615 0.7521740478557806 0  1.08385809393457 0.5015670232038342 0  0.758249404512794 0.5641705835239291 0  0.975302017944805 0.814871697805804 0  0.8667237648340388 0.8775175004498103 0  0.7581711938478721 0.8148596678356821 0  0.758152425351844 0.9401730681893621 0  0.8666825215745161 1.002861206150922 0  0.7581094324766745 1.065502470213594 0  0.758328044826707 0.3134677110852433 0  1.083954067831041 0.0001938695472883667 0  1.19252231816974 0.06290459522933686 0  1.19252567041104 -0.06251801314282313 0  1.301128126712873 0.0001827802610413903 0  1.301130552695204 -0.1252317881558162 0  1.301115330419242 0.1256342297122375 0  1.192511328347185 -0.1879356955324901 0  1.301122730134966 -0.2506554158895156 0  1.192479750429495 -0.3133640044251623 0  1.301109212144929 -0.376083371131565 0  1.192456591795897 -0.4387979527390329 0  1.301099955648029 -0.5015268693521127 0  1.192451042906288 -0.5642305205519469 0  1.083808608024566 -0.5015171362738394 0  1.083797611734733 -0.6269374026706226 0  1.192424372222687 -0.6896688318832552 0  1.083773414310783 -0.7523626977114914 0  0.9751635753458996 -0.6896283291284873 0  0.9751313738428584 -0.8150333902436167 0  0.8665379607358412 -0.7522956549768351 0  0.866507412012517 -0.8776920507112558 0  0.7579364824946339 -0.8149685185678733 0  0.7579105028675454 -0.9403375519043209 0  0.8664591563359163 -1.003063911606668 0  0.7578566498173244 -1.06570761780405 0  0.3248448173131987 0.06260863083124135 0  1.083893067089233 0.7522053392182682 0  0.6495916017573917 1.002804704420728 0  0.6495390695087485 1.128124720958234 0  0.6493286086035562 -1.002983876189425 0  0.6492444751237343 -1.12835303640501 0  1.083873907579097 0.8776032265043791 0  1.083719561562728 -0.8777731949711265 0  0.7580709241722678 1.190851653093661 0  0.649469894045057 1.253474513631031 0  0.7578032938091362 -1.191084253213334 0  0.6491623390451466 -1.253731681537431 0  1.409747204836514 -0.1879373177366649 0  1.40975761403562 0.06289241900658486 0  1.409749567615142 0.1883618295687293 0  1.192505181992844 0.8149134925192071 0  0.54105335710638 1.065408377512265 0  0.5411037179786489 0.9401445256473224 0  0.5407475291886857 -1.065617554551859 0  0.5408198401311859 -0.9403086694595302 0  0.8665959699553137 -0.6267497636797308 0  1.409760301898612 -0.4388112271479134 0  1.409753025387469 -0.5642873312765931 0  1.518426999819115 0.1256101644706334 0  1.518414924029519 0.2511054618769016 0  1.409727051028622 0.3138377764034209 0  0.4331763451889839 -0.3753049428747806 0  0.5415217642104331 -0.4379040554119423 0  0.4331118399901733 -0.5004930698386724 0  0.649839
[...]
<PointData  Scalars="u-1"> 
<DataArray  type="Float64"  Name="u-1"  format="ascii">1.0000000000000000e+01  1.0000000000000000e+01  1.5000000000000000e+02  1.0000000000000000e+01  1.5000000000000000e+02  1.5000000000000000e+02  1.5000000000000000e+02  1.5000000000000000e+02  1.5000000000000000e+02  1.5000000000000000e+02  1.5000000000000000e+02  1.5000000000000000e+02  1.5000000000000000e+02  1.5000000000000000e+02  1.5000000000000000e+02  1.5000000000000000e+02  1.5000000000000000e+02  1.4999999999999997e+02  1.4999999999999997e+02  1.5000000000000000e+02  1.5000000000000000e+02  1.5000000000000000e+02  1.5000000000000000e+02  1.5000000000000000e+02  1.5000000000000000e+02  1.5000000000000000e+02  1.5000000000000000e+02  1.5000000000000000e+02  1.5000000000000000e+02  1.5000000000000000e+02  1.5000000000000000e+02  1.5000000000000000e+02  1.5000000000000000e+02  1.5000000000000000e+02  1.5000000000000000e+02  1.5000000000000000e+02  1.5000000000000000e+02  1.5000000000000000e+02  1.5000000000000000e+02  1.5000000000000000e+02  1.5000000000000000e+02  1.4999999999999997e+02  1.5000000000000000e+02  1.5000000000000000e+02  1.5000000000000000e+02  1.5000000000000000e+02  1.5000000000000000e+02  1.5000000000000000e+02  1.5000000000000000e+02  1.5000000000000000e+02  1.5000000000000000e+02  1.5000000000000000e+02  1.0000000000000002e+01  1.0000000000000000e+01  1.0000000000000000e+01  1.0000000000000000e+01  1.0000000000000000e+01  1.0000000000000000e+01  1.0000000000000000e+01  1.0000000000000000e+01  1.0000000000000000e+01  1.0000000000000000e+01  1.0000000000000000e+01  1.0000000000000000e+01  1.0000000000000000e+01  1.0000000000000000e+01  1.0000000000000000e+01  1.0000000000000000e+01  1.0000000000000000e+01  1.0000000000000000e+01  1.0000000000000000e+01  1.0000000000000000e+01  1.0000000000000000e+01  1.0000000000000000e+01  1.0000000000000000e+01  1.0000000000000000e+01  1.0000000000000000e+01  9.9999999999999982e+00  1.0000000000000000e+01  1.0000000000000000e+01  1.0000000000000000e+01  1.0000000000000000e+01  1.0000000000000000e+01  1.0000000000000002e+01  1.0000000000000000e+01  1.0000000000000000e+01  1.0000000000000000e+01  1.0000000000000000e+01  1.0000000000000000e+01  1.0000000000000000e+01  1.0000000000000000e+01  1.0000000000000000e+01  1.0000000000000000e+01  1.0000000000000000e+01  1.0000000000000000e+01  1.0000000000000000e+01  1.0000000000000000e+01  1.0000000000000000e+01  1.0000000000000000e+01  1.0000000000000000e+01  1.2614839589471903e+02  1.0385238309361495e+02  8.4384715020580572e+01  6.7806425338767525e+01  5.3995975463226948e+01  4.2815947569051502e+01  3.4030077079965452e+01  2.7315581260221219e+01  2.2311259486222148e+01  1.8663242403150818e+01  1.6053225486601075e+01  1.4213056839040965e+01  1.2929777736072781e+01  1.2040498017470290e+01  1.1425520170410996e+01  1.0999281414041928e+01  1.0702285148562613e+01  1.0493866439586832e+01  1.0346578785001142e+01  1.0241986360315414e+01  1.0167610801236206e+01  1.0114851596249343e+01  1.0077684911749563e+01  1.0051765838769473e+01  1.0033924106754020e+01  1.0021829180985986e+01  1.0013754682057781e+01  1.0008441608105009e+01  1.0004981421299862e+01  1.0002716038771664e+01  1.0001171493058312e+01  1.0976069657630005e+01  1.2948922676189474e+02  3.5895178132918090e+01  1.1440517526184141e+01  1.3973738561953326e+01  1.0238758386939960e+01  1.3259785222195052e+02  1.0196844734955141e+01  2.6011348225652561e+01  1.0034458869136973e+01  1.3380935949646695e+02  1.0075270793903496e+01  5.0755000492749772e+01  1.0020484853449766e+01  1.3346376544393746e+02  1.0011058965288722e+01  1.1787657847381661e+02  1.3295435012520616e+02  1.0003561872796553e+01  1.0487369193667581e+01  1.1959376395172688e+01  1.8062895440963391e+01  7.9284085041499793e+01  1.0007642872483435e+01  1.3371949894833543e+02  1.0437627109323998e+01  1.0078104810461731e+01  1.3327162581090752e+02  1.3438107506421611e+01  1.3323068125860254e+02  1.0001744139672290e+01  1.1721608478810280e+02  1.0002181719072588e+01  1.0690361805059354e+01  1.1024506964400814e+01  1.1432155857693967e+01  1.1565433242047421e+01  1.1131790314974912e+01  1.1771285499658738e+01  1.1287885047060316e+01  1.2039195537201355e+01  1.2766903076750133e+01  1.1481666166588965e+01  1.3200857680004903e+01  1.4284028634526635e+01  1.4960194592704656e+01  1.6545208242156086e+01  1.7568180557914342e+01  1.5699864282499309e+01  1.9839901038633084e+01  2.1348036574984839e+01  2.4527619718461629e+01  2.2578347934702556e+01  2.8247225902194426e+01  2.5881181382327259e+01  3.2605535508653134e+01  2.9888814025300061e+01  2.6698183639824311e+01  3.7752451379295714e+01  3.4787649570642522e+01  4.3884196934433177e+01  4.0801453798445486e+01  4.1486062364473298e+01  2.7774769078196766e+01  5.1223484204456568e+01  4.8167141774633244e+01  3.8578762679117943e+01  4.6077894284957530e+01  5.7104275009890166e+01  5.5290091324407214e+01  2.0939759328269805e+01  2.2913517283787296e+01  2.8907737787978697e+01  2.4334888195174482e+01  3.0834954420722749e+01  2.5304970307945659e+01  3.7162121341261908e+01  2.0472937612776200e+01  2.0776805174361265e+01  1.7375541034470118e+01  1.7299362871263067e+01  1.5016487291639656e+01  1.4773361664843208e+01  1.3302501429484238e+01  1.3364672683693934e+01  1.2222317120355195e+01  1.2107511618311822e+01  1.1425038230958144e+01  1.1459245093132111e+01  1.0938172280180899e+01  1.0937440946049518e+01  1.0603344418090417e+01  1.0590592882012425e+01  1.0380139512651397e+01  1.0377982657878484e+01  1.0238409354085071e+01  1.2156423956044966e+01  5.5305748908260192e+01  4.4894392978760983e+01  5.4480495121090996e+01  1.0235308715368895e+01  1.0147599439381471e+01  6.3974584362995010e+01  1.0887230321683759e+01  6.6381338177021263e+01  6.6080113825063776e+01  1.0145399475572416e+01  1.0090083993827180e+01  2.5415126455113114e+01  3.9779178840983597e+01  4.8287341981410492e+01  6.9138941197045071e+01  4.4563591443870607e+01  3.6486657296132783e+01  1.0143601557561505e+01  1.0223544433339690e+01  1.1419157305582221e+01  1.6682654701391005e+01  1.4173975860609319e+01  5.1975186809367294e+01  6.2952284588497974e+01  5.6961441923099173e+01  1.0925021322065255e+01  1.1058301509503710e+01  1.0654449299541103e+01  1.1696158912434845e+01  7.9012106061191290e+01  7.9399739122435591e+01  7.9725857706118688e+01  6.6838767698513777e+01  8.0249575733491383e+01  8.1200084105276119e+01  1.0085765347664848e+01  1.0053179518626150e+01  1.0054945410690907e+01  1.0135448240104717e+01  1.0032436139299785e+01  7.3251368251897773e+01  6.5563879289222029e+01  8.5243980596364267e+01  1.0741758640653872e+01  1.0455254777633282e+01  3.6515510877238917e+01  2.9858800477403992e+01  6.8622230393518166e+01  8.3794485857233155e+01  1.0135429336427702e+01  1.0033162845640801e+01  1.0019530100779503e+01  7.5525320695590423e+01  9.4435967538555602e+01  1.0076142502629269e+01  8.2838993819808366e+01  1.5504749973536320e+01  1.3253785222732565e+01  9.2769084067379765e+01  9.5888209571743701e+01  1.0116930629403392e+01  1.0030002171529501e+01  9.5261136682826915e+01  9.2779633063446923e+01  6.8571977188603995e+01  5.3830698886610627e+01  1.0206859421768538e+01  1.0054375116355990e+01  5.5695977725168653e+01  1.0340384606208636e+01  3.0145874367041884e+01  2.4769123756086021e+01  2.5255150552197279e+01  2.0940009805321534e+01  2.1528600738024650e+01  1.8091916792560827e+01  1.8707381037017306e+01  1.5986119099291612e+01  1.6573745780193978e+01  1.7032209823054234e+01  1.2522595284450221e+01  1.3716000523094147e+01  7.4049579487929122e+01  9.0189157264290742e+01  1.0208527364116742e+01  1.0172996179634179e+01  1.9004095300534335e+01  1.0311778043732014e+01  5.1205973757348929e+01  1.0576922418186307e+01  5.8730865969921098e+01  1.7789345680876984e+01  2.4752283020789744e+01  7.1359687275232645e+01  8.7435826982333495e+01  1.0019992537296122e+01  1.0011711950726713e+01  7.1752293268304200e+01  1.1850309187663992e+01  1.1476300975386218e+01  1.0308584286136009e+02  1.0250164133593794e+01  1.0451821649319708e+01  1.6820489475189195e+01  2.1534007576560491e+01  1.4430541461667804e+01  1.4093766472392451e+01  8.2306157397587654e+01  9.8619378389428704e+01  8.3169775496211557e+01  1.0290207819722063e+02  1.0125677674912577e+01  1.0189245477125390e+01  1.0082028631671722e+01  1.0076028270815614e+02  1.0010928184155016e+01  1.0062170235227414e+01  1.0994689130016189e+02  1.0346769006248941e+01  1.0630842274288742e+01  1.0938108136808553e+02  1.0041512624937807e+01  1.0462691714463536e+02  1.0006670235207162e+01  1.0258120609332076e+02  5.0739690600788443e+01  3.9789265480167245e+01  3.4263478247714971e+01  1.2159829595298223e+01  1.1481480989140950e+02  1.1524599184516802e+02  1.0409341322200970e+02  1.2664083719133127e+02  1.0027722001188563e+01  1.0132490187784178e+01  1.1102010575484771e+01  6.9318361752084328e+01  1.0509491730042884e+01  1.0827444373356647e+01  1.2972744225873619e+01  1.4953522982641685e+01  9.1779624819246479e+01  1.9653913345851862e+01  1.0007121785155679e+01  1.0077610518257583e+01  1.0050510854784223e+01  2.6245795760913659e+01  1.0310529965065278e+01  1.0279011071882078e+01  1.0173697382939780e+01  1.2808903759146588e+01  1.0556115964997590e+01  1.0896227366624304e+01  4.5043367371697499e+01  3.7210967816080689e+01  1.0032864423824295e+01  1.0020115650566092e+01  5.7616798982812448e+01  6.0305724609500722e+01  4.6270830806886735e+01  3.8459574905038124e+01  3.0902199888399991e+01  1.0253222173396985e+01  1.0404231723355693e+01  1.0090039467578775e+01  2.0737917693260805e+01  2.0889714442789209e+01  1.5644334855036167e+01  1.5534681824889628e+01  1.2207375862213343e+01  1.3244047319746945e+01  1.4942117122410538e+01  1.4633735099651503e+01  1.2998590024562789e+01  1.4188838312937552e+01  1.2091323000932098e+01  3.0122265073779079e+01  1.0812281991140306e+01  1.8508322692914291e+01  1.0365970186041690e+01  1.9685992709519464e+01  4.4013450986242731e+01  3.9780372903619643e+01  5.4630003648894274e+01  1.0052599811779096e+01  1.3275655566433215e+01  1.5662251086532558e+01  3.7159082281701565e+01  3.2562920058932619e+01  1.0518326991020416e+01  4.1105466126105370e+01  3.4085390110006728e+01  1.1304246200909354e+01  6.0468194045412602e+01  1.1381164267453149e+01  1.6426513745830849e+01  1.1908103868982915e+01  1.0086889420438636e+01  1.3021536098942095e+01  1.3689849560844458e+01  1.0586414496789439e+01  1.0995103936763757e+01  1.0502881528934966e+01  2.3974708011661622e+01  1.0087478809369047e+01  8.1660716958935666e+01  1.3938557706260768e+01  1.3851136909893649e+01  2.0342711077894641e+01  1.1418483610536509e+02  1.1654596426256110e+02  2.2531566958946822e+01  9.6022326740125067e+01  1.0731310982313013e+02  3.1974040255654604e+01  1.8656538331752905e+01  5.9979701712054606e+01  1.2413772271159752e+01  1.1213284732920962e+02  1.2352693918287553e+01  4.7878467602916437e+01  1.0048503248490951e+01  1.0230080686167398e+01  6.7777489374173982e+01  9.4115578714859055e+01  1.0730946905371816e+01  2.4232151954654856e+01  1.0018228408099622e+01  1.0015412391233944e+01  9.7489931663215728e+01  1.1216026463047045e+02  1.1853586507006460e+01  3.1033296931988414e+01  1.2003030187767228e+01  1.7415080412077323e+01  1.0023833875490741e+01  9.0962191048878282e+01  1.1297053053872023e+02  3.1022031967668173e+01  1.0355772620169573e+01  7.0316365754744552e+01  1.0342476505313973e+01  3.5922376632387589e+01  4.5990457243862963e+01  3.1602625407207590e+01  1.0364659096286520e+01  1.0535749823626878e+01  8.5611780833101548e+01  5.2825185491797157e+01  1.0782764817024239e+01  1.0215629105117787e+02  2.8938988344070122e+01  1.1103472914146883e+01  1.2685091709320288e+01  1.1197661509624650e+01  1.1405928168806848e+02  1.0164761524397866e+01  6.6755199920462161e+01  7.4193741411022302e+01  1.1326054866653795e+01  9.2137579621528403e+01  1.0112278626548978e+01  2.3754508832432709e+01  2.4340419139250791e+01  1.2785692472404898e+01  1.3939381756659641e+01  1.5668358284228507e+01  1.7777160394706442e+01  2.1414345653596836e+01  2.5160878831413235e+01  1.1499345004125037e+02  1.3095000536937275e+02  3.2198591847649809e+01  1.0117119057388459e+01  1.0009300370004251e+01  1.0005843221614471e+01  4.0346227903361445e+01  1.0049699447659780e+01  1.0032248090378859e+01  4.8168978833751609e+01  1.0032277846372255e+01  6.3673971404376594e+01  7.4895920230393074e+01  1.0012728459543840e+01  9.7355174227228844e+01  1.0012234616700571e+01  1.1349162020156153e+02  1.0004361609061425e+01  1.0003510701438826e+01  1.1049698626720225e+01  1.0826892667884106e+01  1.2166398597669514e+02  1.2260105077483084e+02  1.7591008898478837e+01  1.2824654043318938e+02  1.0005720853636275e+01  1.0433899495292639e+01  1.1786185869296715e+02  1.3469767135036787e+02  1.0050375289166388e+01  1.0115431460565668e+01  1.3410282571498871e+02  1.1118851314777699e+02  1.6619930545636837e+01  1.0009135144110433e+01  1.3012997484784938e+02  1.3392260449625920e+02  1.3321417462033762e+02  1.0001253521674467e+01  1.0002317474407977e+01  1.3424410906914409e+02  1.0189548440569629e+01  1.1892098806334425e+02  1.0021188443664478e+01  1.3649066969367433e+02  1.1728875412815345e+01  1.3438171345370361e+02  1.0211484881758198e+01  1.3737427962457872e+02  1.0481220602097535e+01  1.2183087016485206e+02  1.0251973886699169e+01  1.3412333099667288e+02  1.0000929249747633e+01  1.0046247348883144e+01  1.2360093444786796e+02  1.3670323702320323e+02  1.0011984322341283e+01  1.2060309078085717e+02  1.0003848608063340e+01  1.2325855023157490e+02  1.0022775563595410e+01  1.3879788561620981e+02  9.3192467214894151e+01  4.0887415325679520e+01  7.5259921208916623e+01  1.2455198977977780e+01  1.0076511548200926e+01  1.0000264379138031e+01  3.7832058692756142e+01  7.7306791586018406e+01  1.0013837980094825e+01  1.0518041719618557e+01  1.0000208442128759e+01  6.6946408970282405e+01  1.0002322454562561e+01  7.3085557410019149e+01  1.0000135143883634e+01  1.2210112296512422e+01  1.0000516506606846e+01  1.8485676890853608e+01  1.0000099210764901e+01  7.2003526818829897e+01  9.9737990340441200e+00  1.0000063280434663e+01  7.1676941863914749e+01  1.0195907854151669e+01  1.0031911679665296e+01  1.0005828166002821e+01  1.0000177746552342e+01  2.8870098413610158e+01  1.0000164635503912e+01  6.8052732923054677e+01  7.2113645452080505e+01  1.0000244253256568e+01  7.5068173234849795e+01  1.0000038541243841e+01  7.6198686555168237e+01  1.0000097520537436e+01  6.6504085359860483e+01  1.0049025916649116e+01  9.9984211934335079e+00  9.9980598854056471e+00  9.9999921631258140e+00  1.0000118116693843e+01  1.0000391795639072e+01  1.0000364130296809e+01  1.0000391626674192e+01  1.0000412355747660e+01  1.0000370172510019e+01  1.0000438969221205e+01  1.0000460539835565e+01  1.0000489504319306e+01  1.0000512939912564e+01  1.0000541682377630e+01  1.0000515531930020e+01  1.0000566988722143e+01  1.0000612666070337e+01  1.0000644925154448e+01  1.0000593097012809e+01  1.0000663904207642e+01  1.0000624040349750e+01  1.0000616684994430e+01  1.0000648069747699e+01  1.0000573692235040e+01  1.0000524608102610e+01  1.0000535739491641e+01  1.0000988164495338e+01  1.0000615346308244e+01  1.0000544036945062e+01  1.0000655468036330e+01  1.0000376561060580e+01  1.0000560650606387e+01  1.0005344869644450e+01  1.0004256475621951e+01  1.0000530654366086e+01  1.0003112650689832e+01  1.0004012893977366e+01  1.0000583197387362e+01  1.0000489190614241e+01  1.0000470553774312e+01  1.0003822548876833e+01  1.0001928574846390e+01  1.0000509600963907e+01  1.0000823051951580e+01  1.0000549122228215e+01  1.0000544720768806e+01  1.0000546143201285e+01  1.0000538593912061e+01  1.0000510772339663e+01  1.0000496180930407e+01  1.0000460836490458e+01  1.0000470709287971e+01  1.0000426926751780e+01  1.0000416415147868e+01  1.0000385560835744e+01  1.0000374127491515e+01  1.0000346043883305e+01  1.0000333803930683e+01  1.0000308146073124e+01  1.0000318872395155e+01  1.0000283343477193e+01  1.0000292846083212e+01  1.0000259591139534e+01  1.0000433898668772e+01  9.9997553480677279e+00  1.0000190472774623e+01  1.0004094526491382e+01  1.0005448583865906e+01  1.0000295110656920e+01  1.0000248934420469e+01  1.0000227214498025e+01  1.0003022141721660e+01  1.0002891847607305e+01  1.0000237044053973e+01  1.0000206571854088e+01  9.9936650887957725e+00  9.9826743257987118e+00  1.0002552691291431e+01  1.0000477061812623e+01  1.0000319209690842e+01  1.0000215496356660e+01  1.0000452289571852e+01  1.0000402866058124e+01  1.0000540373983679e+01  9.9861997406096172e+00  1.0000720378950716e+01  1.0000502416321062e+01  1.0000279941175878e+01  9.9298364200911742e+00  1.0000437295393143e+01  1.0000302493908514e+01  1.0000327121627523e+01  1.0000300104067618e+01  1.0000338404736649e+01  1.0000332910368444e+01  9.8681627345823770e+00  9.7940534001748443e+00  9.8581668484097449e+00  9.9964692043834482e+00  9.7724502096210486e+00  1.0000215916534202e+01  1.0000187268059360e+01  1.0000176770538680e+01  1.0000159102493104e+01  9.8133992355385224e+00  9.8344363276837043e+00  1.0000479125887425e+01  9.9221197783905772e+00  9.9290788813705682e+00  1.0000305283845362e+01  1.0000480741052868e+01  1.0000492860352532e+01  1.0000387309095318e+01  1.0000504205092755e+01  1.0002986759721020e+01  9.9690075411049914e+00  9.8290451359316187e+00  1.0000147921455069e+01  1.0000131542463713e+01  1.0000266661945551e+01  1.0000244548586458e+01  1.0330853213498738e+01  1.0000335614809181e+01  1.0188887169044333e+01  9.9558532898286405e+00  1.0000168614150017e+01  1.0338882035184881e+01  9.9267337790767822e+00  1.3159685385864295e+01  1.0000435162940731e+01  1.0000464386961301e+01  1.0000502614305786e+01  1.0000289654848670e+01  1.0000348016592810e+01  1.0000392651942445e+01  9.9951821680677870e+00  1.0000165279658052e+01  9.9991034059756085e+00  1.0000343710829974e+01  1.0000515914778923e+01  1.0000567537870165e+01  9.8698016215220132e+00  1.0247755536556490e+01  1.0052318730140929e+01  9.7896189326527558e+00  1.0675575398109888e+01  1.0000245216618790e+01  1.0000222681985115e+01  1.0000250804751589e+01  9.9656570316287443e+00  1.0818512910495549e+01  9.9918687257028473e+00  1.0000218768185537e+01  1.0000220672988933e+01  9.9549020920939775e+00  1.0157045585598635e+01  1.0000118984526413e+01  1.0000103998032774e+01  1.0768337763708120e+01  1.0000084109161886e+01  9.9872020896141649e+00  1.0000236240065828e+01  1.0000203020305301e+01  1.0005192844186981e+01  1.0000530899773480e+01  1.0001088104670865e+01  1.0001053477126671e+01  9.9987009096592949e+00  9.9767980078010616e+00  1.0001398529068535e+01  1.0000362543818154e+01  1.0000401175428749e+01  1.0000390533334397e+01  1.0031883404315597e+01  9.8483533952182789e+00  1.2360594504077538e+01  1.2400895544926335e+01  1.0000114157107577e+01  1.0000302946580607e+01  1.0000217875992449e+01  1.7332863409222089e+01  1.0000323789429039e+01  1.6872041026933626e+01  1.0000194675903714e+01  1.5481502151560331e+01  1.0000088254739399e+01  1.4811663035827474e+01  1.1644299476577370e+01  2.0164294471822622e+01  1.0000457664254427e+01  2.1339828567435799e+01  1.4978589053822835e+01  9.9982307539153155e+00  4.7163809550799890e+01  1.0000155691944451e+01  2.5063483270038077e+01  3.6195809464428926e+01  1.0000378961293844e+01  1.0001174436619943e+01  5.2742694649921098e+01  1.0000238252523722e+01  1.0000368297345190e+01  1.0000413351273421e+01  1.0000439541924974e+01  1.0000460595760964e+01  1.0000313500981701e+01  1.0000210531920095e+01  1.0000181327581748e+01  1.0000431846665286e+01  1.0000062235361835e+01  1.4269312781440902e+01  9.9996733409049678e+00  1.0011498663684774e+01  1.0000223322361403e+01  1.0000182273842563e+01  1.0000166369725276e+01  1.0000021222133618e+01  1.0000047514578707e+01  1.0000197154250658e+01  1.0000209940138042e+01  9.9999091707554584e+00  1.0000325315547682e+01  1.0000479277798787e+01  1.0000386715534866e+01  1.0000134427330801e+01  1.0000066787250601e+01  9.9801201410419491e+00  9.9754130519831090e+00  1.1204107175192853e+01  9.9971012107162451e+00  9.9811840600906550e+0