<?xml version="1.0"?>
<VTKFile type="UnstructuredGrid"  version="0.1"  >
<UnstructuredGrid>
<Piece  NumberOfPoints="1000" NumberOfCells="1898">
<Points>
<DataArray  type="Float64"  NumberOfComponents="3"  format="ascii">2 0 0  -2 0 0  0 2 0  0 -2 0  1.996053456837716 0.1255810393578731 0  1.984229402555223 0.2506664677122601 0  1.964574501275595 0.3747626301243862 0  1.937166321927573 0.4973797756137629 0  1.902113032058523 0.6180339903865582 0  1.859552970992176 0.7362491073503388 0  1.809654103857358 0.8515585854139588 0  1.752613358719046 0.9635073506930532 0  1.68865584926965 1.071653592690939 0  1.618033986646649 1.175570507479816 0  1.541026482962232 1.274847982627361 0  1.457937251802713 1.369094215094766 0  1.369094208649911 1.457937257854835 0  1.274847976447934 1.541026488074299 0  1.175570501763435 1.618033990799842 0  1.071653587205369 1.688655852750899 0  0.9635073455924 1.752613361523153 0  0.8515585806796591 1.80965410608515 0  0.7362491032109458 1.859552972631078 0  0.6180339868872777 1.902113033195508 0  0.4973797728345091 1.937166322641164 0  0.3747626280351212 1.964574501674144 0  0.2506664663712131 1.984229402724637 0  0.1255810386902028 1.996053456879722 0  -0.1255810393578731 1.996053456837716 0  -0.2506664677122601 1.984229402555223 0  -0.3747626301243862 1.964574501275595 0  -0.4973797756137629 1.937166321927573 0  -0.6180339903865582 1.902113032058523 0  -0.7362491073503388 1.859552970992176 0  -0.8515585854139588 1.809654103857358 0  -0.9635073506930532 1.752613358719046 0  -1.071653592690939 1.68865584926965 0  -1.175570507479816 1.618033986646649 0  -1.274847982627361 1.541026482962232 0  -1.369094215094766 1.457937251802713 0  -1.457937257854835 1.369094208649911 0  -1.541026488074299 1.274847976447934 0  -1.618033990799842 1.175570501763435 0  -1.688655852750899 1.071653587205369 0  -1.752613361523153 0.9635073455924 0  -1.80965410608515 0.8515585806796591 0  -1.859552972631078 0.7362491032109458 0  -1.902113033195508 0.6180339868872777 0  -1.937166322641164 0.4973797728345091 0  -1.964574501674144 0.3747626280351212 0  -1.984229402724637 0.2506664663712131 0  -1.996053456879722 0.1255810386902028 0  -1.996053456837716 -0.1255810393578731 0  -1.984229402555223 -0.2506664677122601 0  -1.964574501275595 -0.3747626301243862 0  -1.937166321927573 -0.4973797756137629 0  -1.902113032058523 -0.6180339903865582 0  -1.859552970992176 -0.7362491073503388 0  -1.809654103857358 -0.8515585854139588 0  -1.752613358719046 -0.9635073506930532 0  -1.68865584926965 -1.071653592690939 0  -1.618033986646649 -1.175570507479816 0  -1.541026482962232 -1.274847982627361 0  -1.457937251802713 -1.369094215094766 0  -1.369094208649911 -1.457937257854835 0  -1.274847976447934 -1.541026488074299 0  -1.175570501763435 -1.618033990799842 0  -1.071653587205369 -1.688655852750899 0  -0.9635073455924 -1.752613361523153 0  -0.8515585806796591 -1.80965410608515 0  -0.7362491032109458 -1.859552972631078 0  -0.6180339868872777 -1.902113033195508 0  -0.4973797728345091 -1.937166322641164 0  -0.3747626280351212 -1.964574501674144 0  -0.2506664663712131 -1.984229402724637 0  -0.1255810386902028 -1.996053456879722 0  0.1255810393578731 -1.996053456837716 0  0.2506664677122601 -1.984229402555223 0  0.3747626301243862 -1.964574501275595 0  0.4973797756137629 -1.937166321927573 0  0.6180339903865582 -1.902113032058523 0  0.7362491073503388 -1.859552970992176 0  0.8515585854139588 -1.809654103857358 0  0.9635073506930532 -1.752613358719046 0  1.071653592690939 -1.68865584926965 0  1.175570507479816 -1.618033986646649 0  1.274847982627361 -1.541026482962232 0  1.369094215094766 -1.457937251802713 0  1.457937257854835 -1.369094208649911 0  1.541026488074299 -1.274847976447934 0  1.618033990799842 -1.175570501763435 0  1.688655852750899 -1.071653587205369 0  1.752613361523153 -0.9635073455924 0  1.80965410608515 -0.8515585806796591 0  1.859552972631078 -0.7362491032109458 0  1.902113033195508 -0.6180339868872777 0  1.937166322641164 -0.4973797728345091 0  1.964574501674144 -0.3747626280351212 0  1.984229402724637 -0.2506664663712131 0  1.996053456879722 -0.1255810386902028 0  0 1.875000000000347 0  0 1.750000000000694 0  0 1.625000000001042 0  0 1.500000000001389 0  0 1.375000000001736 0  0 1.250000000002083 0  0 1.125000000002431 0  0 1.000000000002778 0  0 0.8750000000031248 0  0 0.7500000000034714 0  0 0.6250000000038181 0  0 0.5000000000041651 0  0 0.3750000000045119 0  0 0.2500000000048588 0  0 0.1250000000052054 0  0 5.509148692794952e-12 0  0 -0.1249999999947944 0  0 -0.2499999999951412 0  0 -0.3749999999954885 0  0 -0.4999999999958358 0  0 -0.6249999999961826 0  0 -0.7499999999965299 0  0 -0.8749999999968767 0  0 -0.9999999999972236 0  0 -1.124999999997571 0  0 -1.249999999997918 0  0 -1.374999999998265 0  0 -1.499999999998612 0  0 -1.624999999998959 0  0 -1.749999999999306 0  0 -1.874999999999653 0  0.1082566336411304 -0.06249721138958328 0  1.769978925506156 0.6331774562186441 0  1.903135250199003 -0.0421944281877976 0  1.792767445305666 -0.6282195673649206 0  0.1078956266195906 0.4379732200456621 0  0.1081271557368096 -0.5626689135955911 0  1.497668507878613 1.144813795188484 0  1.495381822911744 -1.145186948587215 0  0.1077698321064012 0.9381801610794744 0  1.157591104880423 -1.496075542580389 0  1.15761904203644 1.496061189440118 0  0.107575378454425 -0.9379662415906492 0  0.1074881112432003 1.313364166073589 0  0.1073778204410697 -1.313431641428223 0  0.8581342293190556 1.6841832595155 0  0.8581342337129338 -1.684183256634205 0  1.851368580255463 0.2906826398251708 0  0.5249232492507638 1.815716715781448 0  0.5247778178913532 -1.815859379803398 0  0.1082353668846179 -0.3125509518049559 0  0.1080661273743536 0.1877645712619083 0  0.1078389931990292 0.6880769333414208 0  0.1073280526202888 1.563564970749537 0  0.107160679408544 -1.563615704201531 0  1.331581140402051 1.343190159103474 0  1.626802386652038 -0.9547108573666147 0  1.331552991861951 -1.343226601516206 0  1.631290071630766 0.9577989114228483 0  1.84669162712044 -0.4306457728829043 0  0.2975456488863658 1.873063487819802 0  0.2974751810617229 -1.873107343544094 0  0.09992055001738553 1.810702223800652 0  0.09984374948150972 -1.810705277930003 0  0.1082634647023108 -0.1875124211170647 0  0.2165510801728112 -0.1250032029974569 0  0.2165375172674545 4.221557482128871e-05 0  0.3248562165324149 -0.06247441291907704 0  0.3248585342277372 -0.1875624957204239 0  0.4332059573819909 -0.1250129595067874 0  0.4331985536034745 -0.250149813714412 0  0.5415852610461236 -0.1875723568446455 0  0.5415782023182074 -0.06241747692835881 0  0.5415829075105126 -0.3127317546530641 0  0.6499951624913161 -0.1249882924353291 0  0.6499156431939851 0.0003411059576302356 0  0.7584280238324674 -0.0623683986668593 0  0.7583381724307633 0.06301562139675367 0  0.8668942700507976 0.0002683876425051863 0  0.866904510818723 -0.1250308766382796 0  0.8668767636421114 0.1255591576030338 0  0.9754116371444833 0.0628928043742497 0  0.9754021224577029 0.1881893631214195 0  0.8668629130281992 0.2508426644318986 0  0.9753569972839978 0.3135148713980606 0  0.866839831793855 0.3761708347018111 0  0.9753431037724689 0.4388429871445935 0  0.866814648621348 0.5015010374276645 0  1.08393778919224 0.1255687039628436 0  0.9753369371520746 0.5641756407549315 0  0.8667849648470651 0.6268301269324548 0  0.9753189275771859 0.6895148186252987 0  0.8667545615587615 0.7521740478557806 0  1.08385809393457 0.5015670232038342 0  0.758249404512794 0.5641705835239291 0  0.975302017944805 0.814871697805804 0  0.8667237648340388 0.8775175004498103 0  0.7581711938478721 0.8148596678356821 0  0.758152425351844 0.9401730681893621 0  0.8666825215745161 1.002861206150922 0  0.7581094324766745 1.065502470213594 0  0.758328044826707 0.3134677110852433 0  1.083954067831041 0.0001938695472883667 0  1.19252231816974 0.06290459522933686 0  1.19252567041104 -0.06251801314282313 0  1.301128126712873 0.0001827802610413903 0  1.301130552695204 -0.1252317881558162 0  1.301115330419242 0.1256342297122375 0  1.192511328347185 -0.1879356955324901 0  1.301122730134966 -0.2506554158895156 0  1.192479750429495 -0.3133640044251623 0  1.301109212144929 -0.376083371131565 0  1.192456591795897 -0.4387979527390329 0  1.301099955648029 -0.5015268693521127 0  1.192451042906288 -0.5642305205519469 0  1.083808608024566 -0.5015171362738394 0  1.083797611734733 -0.6269374026706226 0  1.192424372222687 -0.6896688318832552 0  1.083773414310783 -0.7523626977114914 0  0.9751635753458996 -0.6896283291284873 0  0.9751313738428584 -0.8150333902436167 0  0.8665379607358412 -0.7522956549768351 0  0.866507412012517 -0.8776920507112558 0  0.7579364824946339 -0.8149685185678733 0  0.7579105028675454 -0.9403375519043209 0  0.8664591563359163 -1.003063911606668 0  0.7578566498173244 -1.06570761780405 0  0.3248448173131987 0.06260863083124135 0  1.083893067089233 0.7522053392182682 0  0.6495916017573917 1.002804704420728 0  0.6495390695087485 1.128124720958234 0  0.6493286086035562 -1.002983876189425 0  0.6492444751237343 -1.12835303640501 0  1.083873907579097 0.8776032265043791 0  1.083719561562728 -0.8777731949711265 0  0.7580709241722678 1.190851653093661 0  0.649469894045057 1.253474513631031 0  0.7578032938091362 -1.191084253213334 0  0.6491623390451466 -1.253731681537431 0  1.409747204836514 -0.1879373177366649 0  1.40975761403562 0.06289241900658486 0  1.409749567615142 0.1883618295687293 0  1.192505181992844 0.8149134925192071 0  0.54105335710638 1.065408377512265 0  0.5411037179786489 0.9401445256473224 0  0.5407475291886857 -1.065617554551859 0  0.5408198401311859 -0.9403086694595302 0  0.8665959699553137 -0.6267497636797308 0  1.409760301898612 -0.4388112271479134 0  1.409753025387469 -0.5642873312765931 0  1.518426999819115 0.1256101644706334 0  1.518414924029519 0.2511054618769016 0  1.409727051028622 0.3138377764034209 0  0.4331763451889839 -0.3753049428747806 0  0.5415217642104331 -0.4379040554119423 0  0.4331118399901733 -0.5004930698386724 0  0.649839
[...]
<PointData  Scalars="f_65-1"> 
<DataArray  type="Float64"  Name="f_65-1"  format="ascii">1.0000000000000000e+01  1.0000000000000000e+01  1.5000000000000000e+02  1.0000000000000000e+01  1.5000000000000000e+02  1.5000000000000000e+02  1.5000000000000000e+02  1.5000000000000000e+02  1.5000000000000000e+02  1.5000000000000000e+02  1.5000000000000000e+02  1.5000000000000000e+02  1.5000000000000000e+02  1.5000000000000000e+02  1.5000000000000000e+02  1.5000000000000000e+02  1.5000000000000000e+02  1.4999999999999997e+02  1.4999999999999997e+02  1.5000000000000000e+02  1.5000000000000000e+02  1.5000000000000000e+02  1.5000000000000000e+02  1.5000000000000000e+02  1.5000000000000000e+02  1.5000000000000000e+02  1.5000000000000000e+02  1.5000000000000000e+02  1.5000000000000000e+02  1.5000000000000000e+02  1.5000000000000000e+02  1.5000000000000000e+02  1.5000000000000000e+02  1.5000000000000000e+02  1.5000000000000000e+02  1.5000000000000000e+02  1.5000000000000000e+02  1.5000000000000000e+02  1.5000000000000000e+02  1.5000000000000000e+02  1.5000000000000000e+02  1.4999999999999997e+02  1.5000000000000000e+02  1.5000000000000000e+02  1.5000000000000000e+02  1.5000000000000000e+02  1.5000000000000000e+02  1.5000000000000000e+02  1.5000000000000000e+02  1.5000000000000000e+02  1.5000000000000000e+02  1.5000000000000000e+02  1.0000000000000002e+01  1.0000000000000000e+01  1.0000000000000000e+01  1.0000000000000000e+01  1.0000000000000000e+01  1.0000000000000000e+01  1.0000000000000000e+01  1.0000000000000000e+01  1.0000000000000000e+01  1.0000000000000000e+01  1.0000000000000000e+01  1.0000000000000000e+01  1.0000000000000000e+01  1.0000000000000000e+01  1.0000000000000000e+01  1.0000000000000000e+01  1.0000000000000000e+01  1.0000000000000000e+01  1.0000000000000000e+01  1.0000000000000000e+01  1.0000000000000000e+01  1.0000000000000000e+01  1.0000000000000000e+01  1.0000000000000000e+01  1.0000000000000000e+01  9.9999999999999982e+00  1.0000000000000000e+01  1.0000000000000000e+01  1.0000000000000000e+01  1.0000000000000000e+01  1.0000000000000000e+01  1.0000000000000002e+01  1.0000000000000000e+01  1.0000000000000000e+01  1.0000000000000000e+01  1.0000000000000000e+01  1.0000000000000000e+01  1.0000000000000000e+01  1.0000000000000000e+01  1.0000000000000000e+01  1.0000000000000000e+01  1.0000000000000000e+01  1.0000000000000000e+01  1.0000000000000000e+01  1.0000000000000000e+01  1.0000000000000000e+01  1.0000000000000000e+01  1.0000000000000000e+01  5.9519498218794901e+01  2.8951709286905277e+01  1.7401886593379793e+01  1.2953911850944760e+01  1.1198817286105907e+01  1.0492839255011042e+01  1.0204916131821403e+01  1.0086267911234224e+01  1.0036841185624949e+01  1.0016022846450019e+01  1.0007149619735099e+01  1.0003311431413733e+01  1.0001622599773548e+01  1.0000862095880709e+01  1.0000508509774651e+01  1.0000336027433224e+01  1.0000245852780793e+01  1.0000194101694925e+01  1.0000160969025792e+01  1.0000137350668480e+01  1.0000118864028911e+01  1.0000103305974145e+01  1.0000089524350823e+01  1.0000076788200621e+01  1.0000064733241119e+01  1.0000053128451961e+01  1.0000041838352219e+01  1.0000030880166328e+01  1.0000020430262211e+01  1.0000010860804771e+01  1.0000003406387416e+01  1.0000316445334017e+01  6.8868818120019924e+01  1.9683249513496538e+01  1.0024324220269659e+01  1.0003005709299119e+01  1.0000107288610595e+01  7.1991728586269033e+01  9.9999806001272127e+00  1.0072471073243923e+01  9.9998231684613170e+00  7.5673755652015473e+01  1.0000060510531258e+01  1.0971316220695812e+01  1.0000028401611148e+01  7.4851292039417260e+01  9.9998794758758098e+00  6.4839035612788592e+01  7.4980398953717810e+01  9.9999373010706591e+00  1.0000168328478038e+01  1.0000818977999153e+01  1.0013901269168979e+01  1.5802187938253434e+01  1.0000009603025434e+01  7.5302646972290859e+01  1.0001223998449877e+01  9.9998118193722441e+00  7.4640423635346906e+01  1.0161604856382260e+01  7.7498463845097731e+01  9.9999724746488621e+00  4.5752814712826350e+01  9.9999974367305953e+00  1.0000223635311803e+01  1.0000338838060712e+01  1.0000537669209384e+01  1.0000691168560870e+01  1.0000422672918631e+01  1.0001002259267652e+01  1.0000601199448557e+01  1.0001559846498486e+01  1.0002518461984414e+01  1.0000921146177159e+01  1.0004048641785682e+01  1.0006345784704653e+01  1.0010371660947236e+01  1.0015875770046090e+01  1.0026309604017577e+01  1.0016962774774710e+01  1.0039471575894607e+01  1.0066353346416255e+01  1.0097656686580487e+01  1.0058543642984885e+01  1.0142311968509658e+01  1.0087954375392707e+01  1.0210893865764982e+01  1.0136741527252434e+01  1.0166693913666531e+01  1.0324561552570005e+01  1.0222905156260957e+01  1.0524530379939218e+01  1.0382431256362040e+01  1.0504959353870127e+01  1.0095211596942143e+01  1.0891614172213766e+01  1.0688283937798037e+01  1.0301843983986025e+01  1.0575387021782939e+01  1.1291584243526250e+01  1.1138554646315340e+01  1.0036623961005443e+01  1.0111533951991952e+01  1.0285306684660242e+01  1.0183188802401880e+01  1.0477760169785881e+01  1.0285716154429599e+01  1.0729127419577120e+01  1.0108703969311211e+01  1.0155003707459892e+01  1.0059367545647852e+01  1.0076866210702139e+01  1.0029954567235420e+01  1.0035277341290829e+01  1.0014028169592686e+01  1.0011537800587693e+01  1.0005403779942560e+01  1.0006071286708805e+01  1.0002274544167371e+01  1.0001954389683481e+01  1.0000728497877649e+01  1.0000605335494885e+01  1.0000128477236133e+01  1.0000102819695758e+01  9.9999196377149513e+00  9.9998983725356272e+00  9.9998334169620033e+00  1.0001138891162050e+01  1.1239987992882261e+01  1.0523849573473207e+01  1.1088342476279813e+01  9.9998696416122126e+00  9.9998388884446481e+00  1.2093776745637360e+01  1.0000778078624840e+01  1.2326512511537862e+01  1.2316952480372192e+01  9.9997995752086020e+00  9.9998294120533089e+00  1.0406918154281271e+01  1.1251957188486442e+01  1.1858136306287010e+01  1.2943177414430941e+01  1.0519788313074786e+01  1.0245522339336157e+01  9.9998822454480969e+00  9.9999084501966955e+00  1.0001525090371210e+01  1.0086894549779167e+01  1.0035975593760494e+01  1.3295249299518517e+01  1.4700095122348293e+01  1.2567506181075384e+01  1.0000338586679192e+01  1.0000498514765784e+01  1.0000167168177336e+01  1.0001435028656688e+01  1.4946228665688245e+01  1.4881718064167945e+01  1.5019413154252385e+01  1.2489661703232464e+01  1.5062101507644210e+01  1.5585651830760956e+01  9.9997936836768773e+00  9.9998320452343616e+00  9.9998693554916080e+00  9.9997659295385493e+00  9.9998730087096259e+00  1.6272201332565754e+01  1.3463418151178903e+01  1.7009560979800430e+01  1.0000227051513553e+01  1.0000057917228293e+01  1.0253328824571346e+01  1.0117253526928845e+01  1.2883777375102380e+01  1.6679693798675189e+01  9.9999289996141307e+00  9.9999110568565985e+00  9.9999127320350976e+00  1.4385535135508869e+01  2.0546076717172429e+01  9.9997684537694287e+00  1.8280689261003314e+01  1.0082193146254365e+01  1.0030597023674016e+01  2.5141866103542625e+01  2.1112239454970378e+01  9.9997425049709587e+00  9.9998433227916603e+00  2.1018386814131496e+01  2.0495322961952258e+01  1.8658681820560158e+01  1.5584002922162208e+01  9.9999508667470920e+00  9.9999124735855407e+00  1.1261269685241302e+01  9.9999613056467922e+00  1.0119504016364351e+01  1.0055879208678487e+01  1.0060380884314444e+01  1.0027621547719502e+01  1.0031911212588954e+01  1.0014276828469571e+01  1.0017742671787294e+01  1.0007763508215319e+01  1.0010385238891864e+01  1.0041526894768813e+01  1.0014015530634069e+01  1.0003987995061770e+01  1.3694613272260472e+01  1.8687788189752716e+01  9.9997664478923785e+00  9.9997420330996114e+00  1.0209729213237923e+01  9.9998328051229048e+00  1.1434975722175345e+01  1.0000143805690362e+01  1.1995697153837039e+01  1.0012846321611331e+01  1.0056919646258551e+01  1.3540980511433927e+01  1.8418054229470972e+01  9.9999502917279059e+00  9.9999489082533799e+00  2.4959725018036206e+01  1.0010729039636558e+01  1.0005077616362172e+01  2.6639452777398077e+01  9.9997981906791793e+00  1.0000043003418812e+01  1.0177895975154021e+01  1.0487168529660702e+01  1.0004444485400613e+01  1.0003456838485963e+01  1.5617701104153427e+01  2.2686917682647838e+01  1.6886809813507867e+01  2.7667013110714901e+01  9.9999783427580873e+00  9.9999968786557414e+00  9.9999665962767388e+00  2.5469897512735894e+01  9.9999187484091276e+00  9.9997622553567229e+00  3.2130317176080609e+01  9.9999647110263741e+00  1.0000547498019396e+01  3.1648593071281709e+01  9.9997923877189532e+00  2.9316081048736613e+01  9.9999503780585233e+00  2.9589256840288236e+01  1.7661894591125758e+01  1.2891366709240001e+01  1.3096613141085086e+01  1.0020231215035590e+01  4.6910764220588057e+01  4.1828343166727443e+01  3.8328440696776347e+01  5.6060444014096632e+01  9.9998145735009061e+00  9.9997476106973266e+00  1.0006093310907511e+01  3.3273063032666045e+01  1.0000059934159369e+01  1.0000327552448507e+01  1.0001940662154722e+01  1.0006348493662422e+01  2.0672170944971711e+01  1.0024441629999378e+01  9.9999791664367539e+00  1.0000015956601500e+01  1.0000006200182428e+01  1.0072251848897013e+01  9.9999905801716569e+00  1.0000026208469164e+01  1.0000044320673402e+01  1.0001602695299766e+01  1.0000075839505438e+01  1.0000459448421648e+01  1.0560081101809807e+01  1.0282755459968442e+01  9.9999537252114692e+00  9.9999906587075440e+00  1.1504766054684454e+01  1.1869326336177023e+01  1.0646898205290613e+01  1.0331956732777789e+01  1.0142867953686824e+01  1.0000066842243553e+01  1.0000072322946323e+01  9.9998713898216813e+00  1.0026557995269474e+01  1.0027896455153945e+01  1.0006493589549956e+01  1.0006086803595208e+01  1.0004327140966044e+01  1.0008612942348556e+01  1.0022728575319844e+01  1.0015838360561281e+01  1.0005971782531326e+01  1.0010390632424112e+01  1.0003182436745648e+01  1.0125255258603303e+01  1.0000253429568849e+01  1.0023991513897188e+01  9.9999389102155067e+00  1.0070475840512120e+01  1.1039237723727252e+01  1.0589358249045599e+01  1.1127185897403189e+01  9.9999589121374690e+00  1.0002655154861699e+01  1.0009797321366623e+01  1.0260066228448165e+01  1.0165402266647400e+01  1.0000147721075075e+01  1.2031704510111854e+01  1.0417281318086733e+01  1.0002352866811403e+01  1.1837455386796670e+01  1.0000485954222587e+01  1.0027128098337656e+01  1.0002185513483179e+01  9.9999176329809689e+00  1.0015110269708380e+01  1.0006548811750260e+01  1.0000135337962597e+01  1.0003328295006602e+01  1.0000801413664295e+01  1.0057734415644017e+01  9.9997414335728028e+00  2.1698043630640292e+01  1.0060680183730787e+01  1.0095084478541926e+01  1.0196295533319910e+01  3.5940854665698467e+01  3.9993838459444682e+01  1.0040951074962608e+01  2.1708765690076021e+01  2.9946652949118381e+01  1.0757187740376784e+01  1.0043562634491847e+01  1.1586598865145204e+01  1.0001627528342238e+01  3.5530600937876699e+01  1.0002486356439929e+01  1.0771576779365036e+01  9.9998041068516201e+00  9.9997987844916487e+00  1.2513867264032923e+01  2.0340959940870402e+01  1.0000221421394558e+01  1.0500076990752172e+01  9.9998821796339374e+00  9.9998657944694269e+00  2.2714234954862121e+01  3.4601583380473677e+01  1.0006003003546095e+01  1.0134059111810934e+01  1.0000899084049360e+01  1.0015252121901556e+01  9.9998295763638225e+00  3.2325085771589471e+01  3.4930621384391962e+01  1.0240410393343753e+01  9.9998699262725346e+00  1.2935651125331868e+01  1.0000132452099702e+01  1.0344687621952186e+01  1.0831402634404961e+01  1.1077599150503190e+01  1.0000099502006673e+01  1.0000108201043433e+01  1.6753451158511208e+01  1.1207514333807843e+01  1.0000718708926643e+01  2.5384640376653582e+01  1.1263188047620899e+01  1.0002124833351900e+01  1.0003921500699999e+01  1.0000751512677235e+01  3.7133183838214251e+01  1.0000088405240904e+01  1.2883407892694489e+01  1.4764278114526814e+01  1.0001104200675698e+01  2.1329118874369918e+01  1.0000073362132545e+01  1.1095546454312272e+01  1.2340780054761966e+01  1.0001508562159277e+01  1.0003034562544629e+01  1.0006337594173846e+01  1.0012806949572530e+01  1.0031430202228236e+01  1.0062503186565337e+01  3.8887362963098475e+01  6.8261769645464668e+01  1.0169851299194246e+01  1.0000028091311085e+01  9.9999008222605070e+00  9.9999116233751089e+00  1.0404095499015220e+01  1.0000049059087241e+01  1.0000038473699156e+01  1.0782586973239017e+01  9.9999979191303066e+00  1.2357125182503516e+01  1.4480015765708529e+01  1.0000018749603051e+01  2.4404270323777109e+01  9.9999841536512495e+00  3.8722964091572329e+01  1.0000001790584831e+01  9.9999756185615087e+00  1.0009661342368720e+01  1.0001560876334329e+01  4.8990969496951507e+01  5.2344179167738588e+01  1.0350284171460654e+01  7.6067258365727994e+01  9.9999315282865986e+00  1.0000281594286594e+01  4.3822995582075279e+01  7.8003139060683736e+01  9.9998160751747509e+00  9.9998525462415557e+00  7.7562887817201272e+01  7.4418785436473385e+01  1.0556893315817264e+01  9.9998855046465476e+00  6.5068318855447288e+01  7.9083879127148762e+01  7.8551286531746868e+01  9.9999871202778969e+00  9.9999577287149570e+00  8.0990434105591902e+01  9.9998035458271790e+00  4.3575633875678186e+01  9.9998615813692471e+00  8.6882248946122559e+01  1.0049716546829035e+01  8.8383365644933789e+01  1.0000218556431626e+01  8.9747281938733565e+01  1.0002547507429169e+01  4.8977961197480070e+01  9.9999263219323176e+00  8.3587716475838064e+01  9.9999974306469142e+00  9.9997866717433261e+00  5.2345304355395989e+01  8.7865326915992441e+01  9.9998875199841457e+00  4.9550363635668809e+01  9.9999543170124809e+00  5.1963539010591354e+01  9.9998312459142049e+00  9.6241873349976188e+01  4.2304414730263730e+01  1.6940755182373028e+01  5.4262167421305534e+01  1.0034967447652759e+01  1.0000262830085004e+01  1.0000603821420965e+01  1.7580517012152590e+00  -1.7069648379078404e+00  1.0000212618281102e+01  9.9998494305473535e+00  1.0000403697609411e+01  -6.7542935573528764e+00  1.0000141426130753e+01  -6.0325529052210900e+00  1.0000275615831857e+01  9.9945900772185414e+00  1.0000095210504663e+01  9.9224324249136231e+00  1.0000199181940735e+01  -6.3536118224468270e+00  1.0003827703724099e+01  1.0000122221579918e+01  -4.4156952432493517e+00  1.0000212364477933e+01  1.0000245976189234e+01  1.0000176267588499e+01  1.0000068258123003e+01  9.5374147814860777e+00  1.0000329529576030e+01  -5.6771756768079165e+00  -4.5977906534001605e+00  1.0000473851104239e+01  -2.8686330873061121e+00  1.0000072307608681e+01  -3.1378143689151208e+00  1.0000041370070372e+01  7.3079208603276049e+00  1.0000258070746293e+01  1.0000307592898464e+01  1.0000325213074376e+01  1.0000351177700628e+01  1.0000332982702282e+01  1.0000379290957348e+01  1.0000358669053256e+01  1.0000405963198466e+01  1.0000427919643890e+01  1.0000383117391813e+01  1.0000455636157378e+01  1.0000479284427021e+01  1.0000507969633182e+01  1.0000533501507809e+01  1.0000563132891759e+01  1.0000534696410689e+01  1.0000590641189062e+01  1.0000621031109011e+01  1.0000650356808855e+01  1.0000617281670824e+01  1.0000679017237850e+01  1.0000643309769762e+01  1.0000707790164595e+01  1.0000669228775784e+01  1.0000683696980296e+01  1.0000735300224378e+01  1.0000697249925901e+01  1.0000766834622359e+01  1.0000627851571076e+01  1.0000652999559353e+01  1.0000710386809047e+01  1.0000665032094798e+01  1.0000582491819646e+01  1.0000896865426361e+01  1.0000812727393921e+01  1.0000563343428723e+01  1.0000834732591541e+01  1.0000901856552993e+01  1.0000651010747026e+01  1.0000697070238305e+01  1.0000669719653272e+01  1.0000857238031005e+01  1.0000735025711220e+01  1.0000638745604256e+01  1.0000660337826844e+01  1.0000601938367451e+01  1.0000617469446293e+01  1.0000562392214720e+01  1.0000574766340407e+01  1.0000522531223801e+01  1.0000510146131584e+01  1.0000474013988004e+01  1.0000483262996299e+01  1.0000438595464608e+01  1.0000428261934495e+01  1.0000396170775078e+01  1.0000384816774117e+01  1.0000355607118033e+01  1.0000343301490503e+01  1.0000316641547560e+01  1.0000327444034541e+01  1.0000290942544870e+01  1.0000300537200534e+01  1.0000266401584428e+01  1.0000445329674822e+01  1.0000367521620928e+01  1.0000612507984446e+01  1.0000778377638042e+01  1.0000960749951931e+01  1.0000303441348803e+01  1.0000255555282719e+01  1.0000233127175919e+01  9.9998159786986243e+00  9.9989315646218895e+00  1.0000243150145248e+01  1.0000211803453420e+01  9.9991482515606496e+00  9.9988600941395323e+00  1.0000691667254024e+01  1.0000488139495006e+01  1.0000328550105456e+01  1.0000221182497389e+01  1.0000542903613296e+01  1.0000414794194267e+01  1.0000517657690075e+01  1.0000192132510138e+01  1.0000628109442404e+01  1.0000502561883733e+01  1.0000288052290772e+01  1.0001077888688814e+01  1.0000448088257839e+01  1.0000311634471450e+01  1.0000335667147013e+01  1.0000307711229972e+01  1.0000337291231135e+01  1.0000341171489659e+01  1.0011594911704480e+01  1.0025201777431988e+01  1.0009867980671507e+01  9.9981371468083946e+00  1.0024643767255542e+01  1.0000221247180098e+01  1.0000191561143126e+01  1.0000181254092332e+01  1.0000162882635186e+01  1.0021613584145273e+01  1.0019643328088929e+01  1.0000488149864481e+01  1.0013240893185158e+01  1.0001081868531349e+01  1.0000312084081653e+01  1.0000501867726388e+01  1.0000458816903397e+01  1.0000469364319764e+01  1.0000446661781179e+01  1.0000836186136777e+01  9.9988043035708269e+00  1.0014549696377420e+01  1.0000151320034913e+01  1.0000134560411476e+01  1.0000270709887626e+01  1.0000248947321145e+01  9.9546098386051654e+00  1.0000344119327675e+01  9.8554565713318105e+00  9.7080493526614955e+00  1.0000173529655422e+01  9.9740451173682469e+00  1.0013289452470191e+01  9.8205973325298128e+00  1.0000446915521033e+01  1.0000484102713864e+01  1.0000530263392127e+01  1.0000292887596242e+01  1.0000359574457079e+01  1.0000405857706337e+01  1.0000398616230884e+01  1.0000169059762959e+01  1.0000763127810378e+01  1.0000354197342595e+01  1.0000543727177387e+01  1.0000581822991334e+01  1.0013015371608621e+01  9.8060846517677227e+00  9.9518387117756397e+00  1.0017780201928970e+01  9.8155895064571990e+00  1.0000251089746046e+01  1.0000228860852818e+01  1.0000257794513605e+01  9.9992027813204878e+00  9.9818269696617623e+00  1.0000386126206321e+01  1.0000251781670647e+01  1.0000272561719200e+01  9.9966032741998170e+00  1.0011609992203701e+01  1.0000122188457089e+01  1.0000106945240688e+01  9.9775870571999263e+00  1.0000479059053795e+01  1.0000350169149741e+01  1.0000242648680569e+01  1.0000207340543307e+01  1.0000931518805219e+01  1.0000581475499944e+01  1.0000642754258582e+01  1.0000721162085043e+01  1.0000554874211598e+01  1.0000849448467127e+01  1.0000663155911777e+01  1.0000371897003498e+01  1.0000410758215729e+01  1.0000408883989422e+01  1.0000523023791132e+01  1.0014459663133804e+01  9.9070366439274373e+00  9.8935157398245543e+00  1.0000118814572289e+01  1.0000316354292174e+01  1.0000234100921507e+01  1.0647123636907660e+01  1.0000345397880185e+01  1.0774747996596052e+01  1.0000207916909043e+01  9.8465721437321587e+00  1.0000093580348137e+01  1.1424354121053653e+01  9.9038145487224618e+00  1.2548347769378514e+01  1.0000518391103073e+01  1.0771897777370883e+01  9.8802489904763409e+00  1.0000293302209940e+01  -3.7713614835661402e+00  1.0000235656202943e+01  1.1339614893336567e+01  1.2116375242382988e+01  1.0000465347990692e+01  1.0000651139293586e+01  -1.0684208287337110e+01  1.0000259158070969e+01  1.0000380075109858e+01  1.0000426635337886e+01  1.0000454379678736e+01  1.0000475559438449e+01  1.0000315193496895e+01  1.0000293242051436e+01  1.0000313516626189e+01  1.0000445176511787e+01  1.0000079688010628e+01  9.9720020554198339e+00  1.0000231008672772e+01  1.0000430947544407e+01  1.0000227768963796e+01  1.0000191749332496e+01  1.0000173080056003e+01  1.0000156428495046e+01  1.0000139543912452e+01  1.0000211186394976e+01  1.0000231264355577e+01  1.0000192609739814e+01  1.0000335598224604e+01  1.0000494280160664e+01  1.0000398605060596e+01  1.0000138333602491e+01  1.0000108183602940e+01  9.9997553100775445e+00  1.0000035959732509e+01  1.0012540025713790e+01  1.0000488479740243e+01  1.00