<?xml version="1.0"?>
<VTKFile type="UnstructuredGrid"  version="0.1"  >
<UnstructuredGrid>
<Piece  NumberOfPoints="1000" NumberOfCells="1898">
<Points>
<DataArray  type="Float64"  NumberOfComponents="3"  format="ascii">2 0 0  -2 0 0  0 2 0  0 -2 0  1.996053456837716 0.1255810393578731 0  1.984229402555223 0.2506664677122601 0  1.964574501275595 0.3747626301243862 0  1.937166321927573 0.4973797756137629 0  1.902113032058523 0.6180339903865582 0  1.859552970992176 0.7362491073503388 0  1.809654103857358 0.8515585854139588 0  1.752613358719046 0.9635073506930532 0  1.68865584926965 1.071653592690939 0  1.618033986646649 1.175570507479816 0  1.541026482962232 1.274847982627361 0  1.457937251802713 1.369094215094766 0  1.369094208649911 1.457937257854835 0  1.274847976447934 1.541026488074299 0  1.175570501763435 1.618033990799842 0  1.071653587205369 1.688655852750899 0  0.9635073455924 1.752613361523153 0  0.8515585806796591 1.80965410608515 0  0.7362491032109458 1.859552972631078 0  0.6180339868872777 1.902113033195508 0  0.4973797728345091 1.937166322641164 0  0.3747626280351212 1.964574501674144 0  0.2506664663712131 1.984229402724637 0  0.1255810386902028 1.996053456879722 0  -0.1255810393578731 1.996053456837716 0  -0.2506664677122601 1.984229402555223 0  -0.3747626301243862 1.964574501275595 0  -0.4973797756137629 1.937166321927573 0  -0.6180339903865582 1.902113032058523 0  -0.7362491073503388 1.859552970992176 0  -0.8515585854139588 1.809654103857358 0  -0.9635073506930532 1.752613358719046 0  -1.071653592690939 1.68865584926965 0  -1.175570507479816 1.618033986646649 0  -1.274847982627361 1.541026482962232 0  -1.369094215094766 1.457937251802713 0  -1.457937257854835 1.369094208649911 0  -1.541026488074299 1.274847976447934 0  -1.618033990799842 1.175570501763435 0  -1.688655852750899 1.071653587205369 0  -1.752613361523153 0.9635073455924 0  -1.80965410608515 0.8515585806796591 0  -1.859552972631078 0.7362491032109458 0  -1.902113033195508 0.6180339868872777 0  -1.937166322641164 0.4973797728345091 0  -1.964574501674144 0.3747626280351212 0  -1.984229402724637 0.2506664663712131 0  -1.996053456879722 0.1255810386902028 0  -1.996053456837716 -0.1255810393578731 0  -1.984229402555223 -0.2506664677122601 0  -1.964574501275595 -0.3747626301243862 0  -1.937166321927573 -0.4973797756137629 0  -1.902113032058523 -0.6180339903865582 0  -1.859552970992176 -0.7362491073503388 0  -1.809654103857358 -0.8515585854139588 0  -1.752613358719046 -0.9635073506930532 0  -1.68865584926965 -1.071653592690939 0  -1.618033986646649 -1.175570507479816 0  -1.541026482962232 -1.274847982627361 0  -1.457937251802713 -1.369094215094766 0  -1.369094208649911 -1.457937257854835 0  -1.274847976447934 -1.541026488074299 0  -1.175570501763435 -1.618033990799842 0  -1.071653587205369 -1.688655852750899 0  -0.9635073455924 -1.752613361523153 0  -0.8515585806796591 -1.80965410608515 0  -0.7362491032109458 -1.859552972631078 0  -0.6180339868872777 -1.902113033195508 0  -0.4973797728345091 -1.937166322641164 0  -0.3747626280351212 -1.964574501674144 0  -0.2506664663712131 -1.984229402724637 0  -0.1255810386902028 -1.996053456879722 0  0.1255810393578731 -1.996053456837716 0  0.2506664677122601 -1.984229402555223 0  0.3747626301243862 -1.964574501275595 0  0.4973797756137629 -1.937166321927573 0  0.6180339903865582 -1.902113032058523 0  0.7362491073503388 -1.859552970992176 0  0.8515585854139588 -1.809654103857358 0  0.9635073506930532 -1.752613358719046 0  1.071653592690939 -1.68865584926965 0  1.175570507479816 -1.618033986646649 0  1.274847982627361 -1.541026482962232 0  1.369094215094766 -1.457937251802713 0  1.457937257854835 -1.369094208649911 0  1.541026488074299 -1.274847976447934 0  1.618033990799842 -1.175570501763435 0  1.688655852750899 -1.071653587205369 0  1.752613361523153 -0.9635073455924 0  1.80965410608515 -0.8515585806796591 0  1.859552972631078 -0.7362491032109458 0  1.902113033195508 -0.6180339868872777 0  1.937166322641164 -0.4973797728345091 0  1.964574501674144 -0.3747626280351212 0  1.984229402724637 -0.2506664663712131 0  1.996053456879722 -0.1255810386902028 0  0 1.875000000000347 0  0 1.750000000000694 0  0 1.625000000001042 0  0 1.500000000001389 0  0 1.375000000001736 0  0 1.250000000002083 0  0 1.125000000002431 0  0 1.000000000002778 0  0 0.8750000000031248 0  0 0.7500000000034714 0  0 0.6250000000038181 0  0 0.5000000000041651 0  0 0.3750000000045119 0  0 0.2500000000048588 0  0 0.1250000000052054 0  0 5.509148692794952e-12 0  0 -0.1249999999947944 0  0 -0.2499999999951412 0  0 -0.3749999999954885 0  0 -0.4999999999958358 0  0 -0.6249999999961826 0  0 -0.7499999999965299 0  0 -0.8749999999968767 0  0 -0.9999999999972236 0  0 -1.124999999997571 0  0 -1.249999999997918 0  0 -1.374999999998265 0  0 -1.499999999998612 0  0 -1.624999999998959 0  0 -1.749999999999306 0  0 -1.874999999999653 0  0.1082566336411304 -0.06249721138958328 0  1.769978925506156 0.6331774562186441 0  1.903135250199003 -0.0421944281877976 0  1.792767445305666 -0.6282195673649206 0  0.1078956266195906 0.4379732200456621 0  0.1081271557368096 -0.5626689135955911 0  1.497668507878613 1.144813795188484 0  1.495381822911744 -1.145186948587215 0  0.1077698321064012 0.9381801610794744 0  1.157591104880423 -1.496075542580389 0  1.15761904203644 1.496061189440118 0  0.107575378454425 -0.9379662415906492 0  0.1074881112432003 1.313364166073589 0  0.1073778204410697 -1.313431641428223 0  0.8581342293190556 1.6841832595155 0  0.8581342337129338 -1.684183256634205 0  1.851368580255463 0.2906826398251708 0  0.5249232492507638 1.815716715781448 0  0.5247778178913532 -1.815859379803398 0  0.1082353668846179 -0.3125509518049559 0  0.1080661273743536 0.1877645712619083 0  0.1078389931990292 0.6880769333414208 0  0.1073280526202888 1.563564970749537 0  0.107160679408544 -1.563615704201531 0  1.331581140402051 1.343190159103474 0  1.626802386652038 -0.9547108573666147 0  1.331552991861951 -1.343226601516206 0  1.631290071630766 0.9577989114228483 0  1.84669162712044 -0.4306457728829043 0  0.2975456488863658 1.873063487819802 0  0.2974751810617229 -1.873107343544094 0  0.09992055001738553 1.810702223800652 0  0.09984374948150972 -1.810705277930003 0  0.1082634647023108 -0.1875124211170647 0  0.2165510801728112 -0.1250032029974569 0  0.2165375172674545 4.221557482128871e-05 0  0.3248562165324149 -0.06247441291907704 0  0.3248585342277372 -0.1875624957204239 0  0.4332059573819909 -0.1250129595067874 0  0.4331985536034745 -0.250149813714412 0  0.5415852610461236 -0.1875723568446455 0  0.5415782023182074 -0.06241747692835881 0  0.5415829075105126 -0.3127317546530641 0  0.6499951624913161 -0.1249882924353291 0  0.6499156431939851 0.0003411059576302356 0  0.7584280238324674 -0.0623683986668593 0  0.7583381724307633 0.06301562139675367 0  0.8668942700507976 0.0002683876425051863 0  0.866904510818723 -0.1250308766382796 0  0.8668767636421114 0.1255591576030338 0  0.9754116371444833 0.0628928043742497 0  0.9754021224577029 0.1881893631214195 0  0.8668629130281992 0.2508426644318986 0  0.9753569972839978 0.3135148713980606 0  0.866839831793855 0.3761708347018111 0  0.9753431037724689 0.4388429871445935 0  0.866814648621348 0.5015010374276645 0  1.08393778919224 0.1255687039628436 0  0.9753369371520746 0.5641756407549315 0  0.8667849648470651 0.6268301269324548 0  0.9753189275771859 0.6895148186252987 0  0.8667545615587615 0.7521740478557806 0  1.08385809393457 0.5015670232038342 0  0.758249404512794 0.5641705835239291 0  0.975302017944805 0.814871697805804 0  0.8667237648340388 0.8775175004498103 0  0.7581711938478721 0.8148596678356821 0  0.758152425351844 0.9401730681893621 0  0.8666825215745161 1.002861206150922 0  0.7581094324766745 1.065502470213594 0  0.758328044826707 0.3134677110852433 0  1.083954067831041 0.0001938695472883667 0  1.19252231816974 0.06290459522933686 0  1.19252567041104 -0.06251801314282313 0  1.301128126712873 0.0001827802610413903 0  1.301130552695204 -0.1252317881558162 0  1.301115330419242 0.1256342297122375 0  1.192511328347185 -0.1879356955324901 0  1.301122730134966 -0.2506554158895156 0  1.192479750429495 -0.3133640044251623 0  1.301109212144929 -0.376083371131565 0  1.192456591795897 -0.4387979527390329 0  1.301099955648029 -0.5015268693521127 0  1.192451042906288 -0.5642305205519469 0  1.083808608024566 -0.5015171362738394 0  1.083797611734733 -0.6269374026706226 0  1.192424372222687 -0.6896688318832552 0  1.083773414310783 -0.7523626977114914 0  0.9751635753458996 -0.6896283291284873 0  0.9751313738428584 -0.8150333902436167 0  0.8665379607358412 -0.7522956549768351 0  0.866507412012517 -0.8776920507112558 0  0.7579364824946339 -0.8149685185678733 0  0.7579105028675454 -0.9403375519043209 0  0.8664591563359163 -1.003063911606668 0  0.7578566498173244 -1.06570761780405 0  0.3248448173131987 0.06260863083124135 0  1.083893067089233 0.7522053392182682 0  0.6495916017573917 1.002804704420728 0  0.6495390695087485 1.128124720958234 0  0.6493286086035562 -1.002983876189425 0  0.6492444751237343 -1.12835303640501 0  1.083873907579097 0.8776032265043791 0  1.083719561562728 -0.8777731949711265 0  0.7580709241722678 1.190851653093661 0  0.649469894045057 1.253474513631031 0  0.7578032938091362 -1.191084253213334 0  0.6491623390451466 -1.253731681537431 0  1.409747204836514 -0.1879373177366649 0  1.40975761403562 0.06289241900658486 0  1.409749567615142 0.1883618295687293 0  1.192505181992844 0.8149134925192071 0  0.54105335710638 1.065408377512265 0  0.5411037179786489 0.9401445256473224 0  0.5407475291886857 -1.065617554551859 0  0.5408198401311859 -0.9403086694595302 0  0.8665959699553137 -0.6267497636797308 0  1.409760301898612 -0.4388112271479134 0  1.409753025387469 -0.5642873312765931 0  1.518426999819115 0.1256101644706334 0  1.518414924029519 0.2511054618769016 0  1.409727051028622 0.3138377764034209 0  0.4331763451889839 -0.3753049428747806 0  0.5415217642104331 -0.4379040554119423 0  0.4331118399901733 -0.5004930698386724 0  0.649839
[...]
<PointData  Scalars="f_137-1"> 
<DataArray  type="Float64"  Name="f_137-1"  format="ascii">1.0000000000000000e+01  1.0000000000000000e+01  1.5000000000000000e+02  1.0000000000000000e+01  1.5000000000000000e+02  1.5000000000000000e+02  1.5000000000000000e+02  1.5000000000000000e+02  1.5000000000000000e+02  1.5000000000000000e+02  1.5000000000000000e+02  1.5000000000000000e+02  1.5000000000000000e+02  1.5000000000000000e+02  1.5000000000000000e+02  1.5000000000000000e+02  1.5000000000000000e+02  1.4999999999999997e+02  1.4999999999999997e+02  1.5000000000000000e+02  1.5000000000000000e+02  1.5000000000000000e+02  1.5000000000000000e+02  1.5000000000000000e+02  1.5000000000000000e+02  1.5000000000000000e+02  1.5000000000000000e+02  1.5000000000000000e+02  1.5000000000000000e+02  1.5000000000000000e+02  1.5000000000000000e+02  1.5000000000000000e+02  1.5000000000000000e+02  1.5000000000000000e+02  1.5000000000000000e+02  1.5000000000000000e+02  1.5000000000000000e+02  1.5000000000000000e+02  1.5000000000000000e+02  1.5000000000000000e+02  1.5000000000000000e+02  1.4999999999999997e+02  1.5000000000000000e+02  1.5000000000000000e+02  1.5000000000000000e+02  1.5000000000000000e+02  1.5000000000000000e+02  1.5000000000000000e+02  1.5000000000000000e+02  1.5000000000000000e+02  1.5000000000000000e+02  1.5000000000000000e+02  1.0000000000000002e+01  1.0000000000000000e+01  1.0000000000000000e+01  1.0000000000000000e+01  1.0000000000000000e+01  1.0000000000000000e+01  1.0000000000000000e+01  1.0000000000000000e+01  1.0000000000000000e+01  1.0000000000000000e+01  1.0000000000000000e+01  1.0000000000000000e+01  1.0000000000000000e+01  1.0000000000000000e+01  1.0000000000000000e+01  1.0000000000000000e+01  1.0000000000000000e+01  1.0000000000000000e+01  1.0000000000000000e+01  1.0000000000000000e+01  1.0000000000000000e+01  1.0000000000000000e+01  1.0000000000000000e+01  1.0000000000000000e+01  1.0000000000000000e+01  9.9999999999999982e+00  1.0000000000000000e+01  1.0000000000000000e+01  1.0000000000000000e+01  1.0000000000000000e+01  1.0000000000000000e+01  1.0000000000000002e+01  1.0000000000000000e+01  1.0000000000000000e+01  1.0000000000000000e+01  1.0000000000000000e+01  1.0000000000000000e+01  1.0000000000000000e+01  1.0000000000000000e+01  1.0000000000000000e+01  1.0000000000000000e+01  1.0000000000000000e+01  1.0000000000000000e+01  1.0000000000000000e+01  1.0000000000000000e+01  1.0000000000000000e+01  1.0000000000000000e+01  1.0000000000000000e+01  1.0846445373187024e+02  7.5134697850977687e+01  5.1051081198508101e+01  3.4775028376857463e+01  2.4454553823749418e+01  1.8215000701900912e+01  1.4577739692945945e+01  1.2516233498389994e+01  1.1371733097059593e+01  1.0745824654864442e+01  1.0406896514253333e+01  1.0224129403167204e+01  1.0125501150004826e+01  1.0071878451811594e+01  1.0042300728099441e+01  1.0025610429765859e+01  1.0015908724173341e+01  1.0010074619292505e+01  1.0006448700391982e+01  1.0004135243284173e+01  1.0002635720580162e+01  1.0001658832922191e+01  1.0001025656112290e+01  1.0000620185891711e+01  1.0000364824291848e+01  1.0000207323692285e+01  1.0000112471268157e+01  1.0000057148375163e+01  1.0000026492352994e+01  1.0000010913167559e+01  1.0000003722066245e+01  1.0026310690541358e+01  1.1621571323730008e+02  3.0965290466251084e+01  1.0372825835873604e+01  1.0207190780951976e+01  1.0004408564462954e+01  1.1853802318973283e+02  1.0015269857806567e+01  1.2196675101276091e+01  1.0001085628440357e+01  1.2049371648806699e+02  1.0001046921840020e+01  2.2473240402401352e+01  1.0000191800487336e+01  1.2000082297908300e+02  1.0000171529757207e+01  1.0705874880159530e+02  1.1965199719169804e+02  1.0000018630872281e+01  1.0010706970148158e+01  1.0069968082451904e+01  1.0664983123401234e+01  4.5543504858921942e+01  1.0000045867732114e+01  1.2031291091888401e+02  1.0053719471288753e+01  1.0003841361766211e+01  1.2022073442240026e+02  1.1376594276937606e+01  1.2065312276189933e+02  1.0000003914927863e+01  9.4909569333933277e+01  1.0000006479967983e+01  1.0016685445286265e+01  1.0031145569306254e+01  1.0048444716423225e+01  1.0060944682138762e+01  1.0040220502904649e+01  1.0081184409892671e+01  1.0054223688908415e+01  1.0111080068031502e+01  1.0163892989587172e+01  1.0074024749568629e+01  1.0226138822457308e+01  1.0328740055843339e+01  1.0455912986133917e+01  1.0652557244699610e+01  1.0907744623227552e+01  1.0628350917384342e+01  1.1277946002553701e+01  1.1779978033999607e+01  1.2460976600112167e+01  1.1773071157134396e+01  1.3347481114075565e+01  1.2455138153457780e+01  1.4541942586763405e+01  1.3431253417277745e+01  1.3426278670740443e+01  1.6217175524419535e+01  1.4876340029241227e+01  1.8643719556399585e+01  1.7064132177108561e+01  1.8212369721332699e+01  1.2699594075453289e+01  2.2222712655081242e+01  2.0405621593373464e+01  1.6057423535650894e+01  1.9289688623367454e+01  2.5494250520933122e+01  2.4339458712742033e+01  1.1302434056470881e+01  1.2449435436192806e+01  1.4705049451886133e+01  1.3270441468649262e+01  1.6250045050530897e+01  1.4147123979907841e+01  1.8828350738843891e+01  1.2149289532904712e+01  1.2573437815563681e+01  1.1333269925030974e+01  1.1500367026484158e+01  1.0783076424347296e+01  1.0828029087888648e+01  1.0437734755300033e+01  1.0399854292063349e+01  1.0225607363626818e+01  1.0234076990097293e+01  1.0122124650229940e+01  1.0113870931115009e+01  1.0062217209240197e+01  1.0056454368404557e+01  1.0031057025319068e+01  1.0027551656110496e+01  1.0015224790676106e+01  1.0016477501879493e+01  1.0008112001311021e+01  1.0093056267605602e+01  2.4957997828509999e+01  1.8731310402074165e+01  2.3914516462553387e+01  1.0007339778675234e+01  1.0003912084068631e+01  3.0622608300044792e+01  1.0063613225102436e+01  3.2091968981296752e+01  3.2002084563512433e+01  1.0004156116064015e+01  1.0001997218579387e+01  1.4857696188336904e+01  2.1668962349844431e+01  2.6098312384506986e+01  3.5115934676271159e+01  1.8646257146811298e+01  1.5256682650562835e+01  1.0003484897796488e+01  1.0006301264848895e+01  1.0098968152822929e+01  1.1517824553359207e+01  1.0781849980899958e+01  3.1201211752660676e+01  3.8321304806414432e+01  3.0909825819248603e+01  1.0035712453333556e+01  1.0048161260708522e+01  1.0023031574830203e+01  1.0100039391003838e+01  4.3690398894998339e+01  4.3658581319263774e+01  4.4200142380284518e+01  3.2838794130762203e+01  4.4374806241325665e+01  4.6035190028726497e+01  1.0002031901847973e+01  1.0000965581923635e+01  1.0000934444039787e+01  1.0004128063381248e+01  1.0000442091385763e+01  4.5464778617970694e+01  3.6189250021507739e+01  5.0620221539261820e+01  1.0030467541733799e+01  1.0014482842670132e+01  1.5326027873380056e+01  1.3143149413841837e+01  3.4619558081326325e+01  4.9210636903474388e+01  1.0002969331040614e+01  1.0000426641928382e+01  1.0000194519043914e+01  4.1420616223998870e+01  6.0293486479144384e+01  1.0001913140009018e+01  5.2975847559184089e+01  1.1335626261623901e+01  1.0638055113736765e+01  6.7004850290496904e+01  6.1963032030737040e+01  1.0003769630363481e+01  1.0000434798107408e+01  6.1741863956100758e+01  5.9982474015404037e+01  4.7255216010792665e+01  3.6147487428036108e+01  1.0005197388824199e+01  1.0000860177499186e+01  2.5026556973045640e+01  1.0010999967142881e+01  1.3205629467939559e+01  1.1863475767158432e+01  1.1976634214493751e+01  1.1118396605882070e+01  1.1241145827379626e+01  1.0684292031277717e+01  1.0797467365639237e+01  1.0428946017881294e+01  1.0524958448313686e+01  1.1093259615698507e+01  1.0385386725818151e+01  1.0240087062264545e+01  3.8705815355009385e+01  5.5419723523779439e+01  1.0008106499795138e+01  1.0007066348711563e+01  1.2671034560929996e+01  1.0015396913852044e+01  2.5243475850055486e+01  1.0017240896325008e+01  2.9345170106528304e+01  1.0632224739278911e+01  1.1872177939436380e+01  3.7349644967497817e+01  5.3740368384631324e+01  1.0000193060017031e+01  1.0000083801152721e+01  5.5393303771509416e+01  1.0291359948832906e+01  1.0183028030136454e+01  7.2551547208392648e+01  1.0012935564791666e+01  1.0028322649532482e+01  1.2129212274538073e+01  1.4425519662715447e+01  1.0275856216682428e+01  1.0230717545739145e+01  4.6435338917118720e+01  6.5464030354768823e+01  5.0049434899800964e+01  7.3975279672297532e+01  1.0002458302991995e+01  1.0004183688148315e+01  1.0001400242511577e+01  6.9828540506769244e+01  1.0000078795158814e+01  1.0001656094680852e+01  8.1350520940322014e+01  1.0022619379067583e+01  1.0050111176720268e+01  8.0634604109123174e+01  1.0000869017208139e+01  7.5679298158841206e+01  1.0000032976460650e+01  7.6765311159682426e+01  3.7419471346058131e+01  2.5957768731936579e+01  2.4215113778062758e+01  1.0425646170903565e+01  9.6170699894098334e+01  9.2895109551629773e+01  8.4767922021848094e+01  1.0793188299520463e+02  1.0000625039617400e+01  1.0005868416855382e+01  1.0172675537651465e+01  5.9294564376351843e+01  1.0018692943698566e+01  1.0039191711993126e+01  1.0144918288582017e+01  1.0352736664289631e+01  5.9242410911738581e+01  1.0992995491075542e+01  1.0000037673149230e+01  1.0001192346639963e+01  1.0000678346532888e+01  1.2240007895031507e+01  1.0008836461697486e+01  1.0006883245207183e+01  1.0003344053096182e+01  1.0125253147939466e+01  1.0023159255989521e+01  1.0048219683250457e+01  1.8995942549272108e+01  1.5670796207177270e+01  1.0000399372674259e+01  1.0000190325934037e+01  2.6537619009092463e+01  2.8664209429416545e+01  1.9757102761987856e+01  1.6249173763675220e+01  1.3533355316866187e+01  1.0005373389213876e+01  1.0011016540660743e+01  1.0001850110971372e+01  1.1080802796864202e+01  1.1111567703739597e+01  1.0377155069882296e+01  1.0358487401919767e+01  1.0200488178626278e+01  1.0338419962838913e+01  1.0677506538306405e+01  1.0547149173635866e+01  1.0270017286710775e+01  1.0420074324016635e+01  1.0166859015910589e+01  1.3257536432837673e+01  1.0026480218782662e+01  1.0922349695351048e+01  1.0013264760481535e+01  1.1677322805149151e+01  2.1812750637417349e+01  1.8542035959624297e+01  2.4150139106670480e+01  1.0000769183899546e+01  1.0181302827433660e+01  1.0473135433991706e+01  1.5484240302532715e+01  1.4005253948906084e+01  1.0013138917662294e+01  2.4459312313152051e+01  1.6449739370535948e+01  1.0120242777301760e+01  2.8923807902162860e+01  1.0042345936278998e+01  1.0845631075734927e+01  1.0131656434913960e+01  1.0001636866442986e+01  1.0435795987086008e+01  1.0311304122362916e+01  1.0032760571612156e+01  1.0124888016383183e+01  1.0050273801577783e+01  1.1858957253374287e+01  1.0002987232653073e+01  5.7520982453121732e+01  1.0973233519294860e+01  1.1179872698362345e+01  1.2799765427908337e+01  8.7549084056298284e+01  9.1414114674977640e+01  1.1474504075193799e+01  6.2803318808577544e+01  7.7785262975482141e+01  1.7834171724830153e+01  1.1250697002352609e+01  2.7517238752830526e+01  1.0120898058029987e+01  8.6100518110553097e+01  1.0152466144586979e+01  2.1003988256730047e+01  1.0000937710587126e+01  1.0008422037572732e+01  3.3143207357084840e+01  6.0048555662471628e+01  1.0020228776198563e+01  1.5056438786298280e+01  1.0000190445605016e+01  1.0000170957247043e+01  6.5012742610705189e+01  8.5242991250780065e+01  1.0220054650914687e+01  1.3476484224701220e+01  1.0076859772976331e+01  1.0681625909727394e+01  1.0000368148339041e+01  7.2561356336946375e+01  8.6039486649643266e+01  1.4641276466448735e+01  1.0016627443037626e+01  3.5279963351450526e+01  1.0006890949436382e+01  1.6182469985280804e+01  2.1116419826476754e+01  1.8931778512509783e+01  1.0008475639955442e+01  1.0031948872867087e+01  5.0041076759439179e+01  2.4441386616978178e+01  1.0059578761795860e+01  7.0346417230832827e+01  1.8739308506793108e+01  1.0107265941270429e+01  1.0206052729398484e+01  1.0063644973516912e+01  8.8032742053371948e+01  1.0002785849728722e+01  3.4544512633894769e+01  4.2350874077424528e+01  1.0081339001189999e+01  6.1614271492667065e+01  1.0001729064857209e+01  1.6795443210527491e+01  1.9125344243401432e+01  1.0118747581096192e+01  1.0209197070449829e+01  1.0368785481427762e+01  1.0627341873520836e+01  1.1208869447352606e+01  1.1983173448313774e+01  8.9969252850724118e+01  1.1593306719673407e+02  1.3970104559525357e+01  1.0002026394115694e+01  1.0000070651189393e+01  1.0000046949725538e+01  1.7101809525237034e+01  1.0000617559568097e+01  1.0000352243893476e+01  2.0906897190575606e+01  1.0000370551145583e+01  3.1374479752035846e+01  4.0951380329345760e+01  1.0000098343965155e+01  6.6567258539573217e+01  1.0000090414585365e+01  8.8822828217600701e+01  1.0000018864914272e+01  1.0000010936570709e+01  1.0207810048354165e+01  1.0082735025675552e+01  1.0042731218790378e+02  1.0315101500140118e+02  1.3022015733537051e+01  1.1787453363888798e+02  1.0000028517662741e+01  1.0035226767008849e+01  9.4886416141781609e+01  1.2196637583675719e+02  1.0002018328769546e+01  1.0007083222908268e+01  1.2112081808693861e+02  1.0431026027030956e+02  1.3329798953081916e+01  1.0000106307362779e+01  1.1428895171298268e+02  1.2162913616751035e+02  1.2080100673754902e+02  1.0000002434016938e+01  1.0000007513312324e+01  1.2297139814481484e+02  1.0010651703153297e+01  9.5299834798438582e+01  1.0000562393405920e+01  1.2537236625303244e+02  1.0561522924296053e+01  1.2548064305208517e+02  1.0020484675524981e+01  1.2724411050574227e+02  1.0075270675535199e+01  1.0024825574312372e+02  1.0017194010696098e+01  1.2240931577785805e+02  1.0000002245024863e+01  1.0001315501046484e+01  1.0297127417381721e+02  1.2581026262650714e+02  1.0000227378898428e+01  9.9677177363070157e+01  1.0000013701007884e+01  1.0257505989509987e+02  1.0000420683232974e+01  1.3031986172925940e+02  7.9695393873530534e+01  3.1781572521445931e+01  7.0947985185818069e+01  1.0586671735761550e+01  9.9985570405816073e+00  1.0000429188329985e+01  2.2342135209983375e+01  4.3460160080370478e+01  9.9999106762756735e+00  9.9885667955606792e+00  1.0000300994244467e+01  3.2121323036341003e+01  1.0000082260590064e+01  3.7816220479314737e+01  1.0000199320557723e+01  9.9621217208910533e+00  1.0000075724323890e+01  1.0124852966112822e+01  1.0000144492870387e+01  3.7084992028781578e+01  1.0013264870059174e+01  1.0000089954359733e+01  3.7701596752979022e+01  9.9958635706724834e+00  9.9995441238682670e+00  1.0000042767689377e+01  1.0000056927948009e+01  1.1617894678525374e+01  1.0000240101232702e+01  3.2761963480383436e+01  3.7562253669730438e+01  1.0000355374240085e+01  4.0248885864421801e+01  1.0000053672626983e+01  4.0680085883931781e+01  1.0000034005590361e+01  2.3693853006231052e+01  9.9991713816327437e+00  1.0000350829214373e+01  1.0000384665635755e+01  1.0000349252389386e+01  1.0000330098217956e+01  1.0000374098272594e+01  1.0000354255426533e+01  1.0000401138353451e+01  1.0000422499123708e+01  1.0000378839268652e+01  1.0000449968553752e+01  1.0000472874180719e+01  1.0000501585087031e+01  1.0000526380151314e+01  1.0000555135643841e+01  1.0000528011355119e+01  1.0000581271194536e+01  1.0000617917871878e+01  1.0000648799269117e+01  1.0000606542896557e+01  1.0000679048213510e+01  1.0000632844790383e+01  1.0000690770207131e+01  1.0000666970242412e+01  1.0000647486439322e+01  1.0000670889197764e+01  1.0000649867386819e+01  1.0000827882787700e+01  1.0000623181478636e+01  1.0000620672554929e+01  1.0000759167714220e+01  1.0000651559226526e+01  1.0000575337935514e+01  1.0001450725964974e+01  1.0001490893319049e+01  1.0000552484052470e+01  1.0001222814182324e+01  1.0000551232610039e+01  1.0000628423136579e+01  1.0000719715867172e+01  1.0000652140519522e+01  1.0001353584798380e+01  1.0001000729441676e+01  1.0000609841692700e+01  1.0000717812361350e+01  1.0000589122002108e+01  1.0000599410044410e+01  1.0000559039179155e+01  1.0000565792275228e+01  1.0000518711911768e+01  1.0000505401612482e+01  1.0000470046933847e+01  1.0000479402151655e+01  1.0000435177776108e+01  1.0000424626604230e+01  1.0000392996310667e+01  1.0000381523321552e+01  1.0000352728143920e+01  1.0000340367415752e+01  1.0000314067819067e+01  1.0000324912292507e+01  1.0000288683939893e+01  1.0000298307042796e+01  1.0000264411286208e+01  1.0000442147214967e+01  1.0000368614589828e+01  1.0000549730781472e+01  1.0001581173625480e+01  1.0001571890668426e+01  1.0000300861859051e+01  1.0000253581503987e+01  1.0000231391243499e+01  9.9947266856083363e+00  9.9913443120622549e+00  1.0000241393864357e+01  1.0000210316310238e+01  9.9916779057112155e+00  9.9898589124270920e+00  1.0000159185538068e+01  1.0000484709006399e+01  1.0000325605751897e+01  1.0000219493945103e+01  1.0000504933042780e+01  1.0000411027759492e+01  1.0000508644939336e+01  9.9955914881473849e+00  1.0000656457560954e+01  1.0000494752189088e+01  1.0000285535362288e+01  1.0000345669924435e+01  1.0000445100605489e+01  1.0000308749206829e+01  1.0000333209634631e+01  1.0000305522302398e+01  1.0000333528985916e+01  1.0000338857059228e+01  1.0026757571402994e+01  1.0063335646019508e+01  1.0030309568833820e+01  9.9878161176889719e+00  1.0079509936334826e+01  1.0000219614853526e+01  1.0000190323979419e+01  1.0000179957979114e+01  1.0000161711944134e+01  1.0071867573400141e+01  1.0078217514077446e+01  1.0000485668396548e+01  1.0060154589814919e+01  1.0005040598425992e+01  1.0000310184893609e+01  1.0000494660863533e+01  1.0000436035246707e+01  1.0000430515550082e+01  1.0000431917038100e+01  1.0001224621487738e+01  9.9898127562511654e+00  1.0069566943365412e+01  1.0000150268355464e+01  1.0000133579602140e+01  1.0000268238223898e+01  1.0000246792380866e+01  1.0060137335064230e+01  1.0000341839792465e+01  9.9969420957828845e+00  9.9968396910320667e+00  1.0000171678936434e+01  1.0038048339438191e+01  1.0057453464956707e+01  9.6742022620652648e+00  1.0000443850063702e+01  1.0000482983695564e+01  1.0000523051613602e+01  1.0000290034613050e+01  1.0000355820596475e+01  1.0000401479407595e+01  1.0000565065185977e+01  1.0000167801918085e+01  1.0001276248945155e+01  1.0000350828499414e+01  1.0000534955042353e+01  1.0000578029135132e+01  1.0041243887004841e+01  9.9321556419566850e+00  1.0017596405012254e+01  1.0066761988367743e+01  9.8049865120712756e+00  1.0000249374018596e+01  1.0000227133721840e+01  1.0000255659800244e+01  9.9915142938518233e+00  9.9708428121589261e+00  1.0000762841025516e+01  1.0000249408179121e+01  1.0000269912090538e+01  1.0000956648787334e+01  1.0096294131197791e+01  1.0000121319824141e+01  1.0000106066882831e+01  9.9699241901993183e+00  1.0000417401623604e+01  1.0001178468140306e+01  1.0000240715457144e+01  1.0000205703359011e+01  1.0001209113858648e+01  1.0000566593687564e+01  1.0000724414872161e+01  1.0000544579845387e+01  9.9995387525821364e+00  1.0002303740511989e+01  1.0000760053131801e+01  1.0000369255453034e+01  1.0000408018168153e+01  1.0000407054692497e+01  9.9994799202239744e+00  1.0071934537343379e+01  9.6303070064106393e+00  9.6511791604775325e+00  1.0000118036121796e+01  1.0000314377064397e+01  1.0000235431906097e+01  8.7562050124295805e+00  1.0000344272117294e+01  8.7072439311541316e+00  1.0000209573157024e+01  9.5793634787736153e+00  1.0000092832042460e+01  8.1179939770553524e+00  9.7332055238415585e+00  7.2442049915135698e+00  1.0000517740640756e+01  8.7956313055821767e+00  9.5596116723900924e+00  9.9986269706377673e+00  1.5399022149517663e+01  1.0000205721993382e+01  8.7183031022793021e+00  1.2197676326964032e+01  1.0000463898540522e+01  1.0000785858657778e+01  2.3516089768216005e+01  1.0000266523185559e+01  1.0000376220356664e+01  1.0000422242905527e+01  1.0000449354101828e+01  1.0000470643184340e+01  1.0000311910338676e+01  1.0000290312340008e+01  1.0000310459310651e+01  1.0000440856400186e+01  1.0000080104082164e+01  9.5797735945369116e+00  1.0000240158438203e+01  1.0000166809722101e+01  1.0000225897939753e+01  1.0000190157597146e+01  1.0000171681079181e+01  1.0000158248845697e+01  1.0000140716405475e+01  1.0000209342790605e+01  1.0000229166783313e+01  1.0000196788728989e+01  1.0000332308126749e+01  1.0000489453649530e+01  1.0000394766056955e+01  1.0000137292625073e+01  1.0000108715247379e+01  1.0007122908679353e+01  1.0003634137707820e+01  9.9055428244652859e+00  1.0000323826364871e+01  1.00019680504