<?xml version="1.0"?>
<VTKFile type="UnstructuredGrid"  version="0.1"  >
<UnstructuredGrid>
<Piece  NumberOfPoints="1000" NumberOfCells="1898">
<Points>
<DataArray  type="Float64"  NumberOfComponents="3"  format="ascii">2 0 0  -2 0 0  0 2 0  0 -2 0  1.996053456837716 0.1255810393578731 0  1.984229402555223 0.2506664677122601 0  1.964574501275595 0.3747626301243862 0  1.937166321927573 0.4973797756137629 0  1.902113032058523 0.6180339903865582 0  1.859552970992176 0.7362491073503388 0  1.809654103857358 0.8515585854139588 0  1.752613358719046 0.9635073506930532 0  1.68865584926965 1.071653592690939 0  1.618033986646649 1.175570507479816 0  1.541026482962232 1.274847982627361 0  1.457937251802713 1.369094215094766 0  1.369094208649911 1.457937257854835 0  1.274847976447934 1.541026488074299 0  1.175570501763435 1.618033990799842 0  1.071653587205369 1.688655852750899 0  0.9635073455924 1.752613361523153 0  0.8515585806796591 1.80965410608515 0  0.7362491032109458 1.859552972631078 0  0.6180339868872777 1.902113033195508 0  0.4973797728345091 1.937166322641164 0  0.3747626280351212 1.964574501674144 0  0.2506664663712131 1.984229402724637 0  0.1255810386902028 1.996053456879722 0  -0.1255810393578731 1.996053456837716 0  -0.2506664677122601 1.984229402555223 0  -0.3747626301243862 1.964574501275595 0  -0.4973797756137629 1.937166321927573 0  -0.6180339903865582 1.902113032058523 0  -0.7362491073503388 1.859552970992176 0  -0.8515585854139588 1.809654103857358 0  -0.9635073506930532 1.752613358719046 0  -1.071653592690939 1.68865584926965 0  -1.175570507479816 1.618033986646649 0  -1.274847982627361 1.541026482962232 0  -1.369094215094766 1.457937251802713 0  -1.457937257854835 1.369094208649911 0  -1.541026488074299 1.274847976447934 0  -1.618033990799842 1.175570501763435 0  -1.688655852750899 1.071653587205369 0  -1.752613361523153 0.9635073455924 0  -1.80965410608515 0.8515585806796591 0  -1.859552972631078 0.7362491032109458 0  -1.902113033195508 0.6180339868872777 0  -1.937166322641164 0.4973797728345091 0  -1.964574501674144 0.3747626280351212 0  -1.984229402724637 0.2506664663712131 0  -1.996053456879722 0.1255810386902028 0  -1.996053456837716 -0.1255810393578731 0  -1.984229402555223 -0.2506664677122601 0  -1.964574501275595 -0.3747626301243862 0  -1.937166321927573 -0.4973797756137629 0  -1.902113032058523 -0.6180339903865582 0  -1.859552970992176 -0.7362491073503388 0  -1.809654103857358 -0.8515585854139588 0  -1.752613358719046 -0.9635073506930532 0  -1.68865584926965 -1.071653592690939 0  -1.618033986646649 -1.175570507479816 0  -1.541026482962232 -1.274847982627361 0  -1.457937251802713 -1.369094215094766 0  -1.369094208649911 -1.457937257854835 0  -1.274847976447934 -1.541026488074299 0  -1.175570501763435 -1.618033990799842 0  -1.071653587205369 -1.688655852750899 0  -0.9635073455924 -1.752613361523153 0  -0.8515585806796591 -1.80965410608515 0  -0.7362491032109458 -1.859552972631078 0  -0.6180339868872777 -1.902113033195508 0  -0.4973797728345091 -1.937166322641164 0  -0.3747626280351212 -1.964574501674144 0  -0.2506664663712131 -1.984229402724637 0  -0.1255810386902028 -1.996053456879722 0  0.1255810393578731 -1.996053456837716 0  0.2506664677122601 -1.984229402555223 0  0.3747626301243862 -1.964574501275595 0  0.4973797756137629 -1.937166321927573 0  0.6180339903865582 -1.902113032058523 0  0.7362491073503388 -1.859552970992176 0  0.8515585854139588 -1.809654103857358 0  0.9635073506930532 -1.752613358719046 0  1.071653592690939 -1.68865584926965 0  1.175570507479816 -1.618033986646649 0  1.274847982627361 -1.541026482962232 0  1.369094215094766 -1.457937251802713 0  1.457937257854835 -1.369094208649911 0  1.541026488074299 -1.274847976447934 0  1.618033990799842 -1.175570501763435 0  1.688655852750899 -1.071653587205369 0  1.752613361523153 -0.9635073455924 0  1.80965410608515 -0.8515585806796591 0  1.859552972631078 -0.7362491032109458 0  1.902113033195508 -0.6180339868872777 0  1.937166322641164 -0.4973797728345091 0  1.964574501674144 -0.3747626280351212 0  1.984229402724637 -0.2506664663712131 0  1.996053456879722 -0.1255810386902028 0  0 1.875000000000347 0  0 1.750000000000694 0  0 1.625000000001042 0  0 1.500000000001389 0  0 1.375000000001736 0  0 1.250000000002083 0  0 1.125000000002431 0  0 1.000000000002778 0  0 0.8750000000031248 0  0 0.7500000000034714 0  0 0.6250000000038181 0  0 0.5000000000041651 0  0 0.3750000000045119 0  0 0.2500000000048588 0  0 0.1250000000052054 0  0 5.509148692794952e-12 0  0 -0.1249999999947944 0  0 -0.2499999999951412 0  0 -0.3749999999954885 0  0 -0.4999999999958358 0  0 -0.6249999999961826 0  0 -0.7499999999965299 0  0 -0.8749999999968767 0  0 -0.9999999999972236 0  0 -1.124999999997571 0  0 -1.249999999997918 0  0 -1.374999999998265 0  0 -1.499999999998612 0  0 -1.624999999998959 0  0 -1.749999999999306 0  0 -1.874999999999653 0  0.1082566336411304 -0.06249721138958328 0  1.769978925506156 0.6331774562186441 0  1.903135250199003 -0.0421944281877976 0  1.792767445305666 -0.6282195673649206 0  0.1078956266195906 0.4379732200456621 0  0.1081271557368096 -0.5626689135955911 0  1.497668507878613 1.144813795188484 0  1.495381822911744 -1.145186948587215 0  0.1077698321064012 0.9381801610794744 0  1.157591104880423 -1.496075542580389 0  1.15761904203644 1.496061189440118 0  0.107575378454425 -0.9379662415906492 0  0.1074881112432003 1.313364166073589 0  0.1073778204410697 -1.313431641428223 0  0.8581342293190556 1.6841832595155 0  0.8581342337129338 -1.684183256634205 0  1.851368580255463 0.2906826398251708 0  0.5249232492507638 1.815716715781448 0  0.5247778178913532 -1.815859379803398 0  0.1082353668846179 -0.3125509518049559 0  0.1080661273743536 0.1877645712619083 0  0.1078389931990292 0.6880769333414208 0  0.1073280526202888 1.563564970749537 0  0.107160679408544 -1.563615704201531 0  1.331581140402051 1.343190159103474 0  1.626802386652038 -0.9547108573666147 0  1.331552991861951 -1.343226601516206 0  1.631290071630766 0.9577989114228483 0  1.84669162712044 -0.4306457728829043 0  0.2975456488863658 1.873063487819802 0  0.2974751810617229 -1.873107343544094 0  0.09992055001738553 1.810702223800652 0  0.09984374948150972 -1.810705277930003 0  0.1082634647023108 -0.1875124211170647 0  0.2165510801728112 -0.1250032029974569 0  0.2165375172674545 4.221557482128871e-05 0  0.3248562165324149 -0.06247441291907704 0  0.3248585342277372 -0.1875624957204239 0  0.4332059573819909 -0.1250129595067874 0  0.4331985536034745 -0.250149813714412 0  0.5415852610461236 -0.1875723568446455 0  0.5415782023182074 -0.06241747692835881 0  0.5415829075105126 -0.3127317546530641 0  0.6499951624913161 -0.1249882924353291 0  0.6499156431939851 0.0003411059576302356 0  0.7584280238324674 -0.0623683986668593 0  0.7583381724307633 0.06301562139675367 0  0.8668942700507976 0.0002683876425051863 0  0.866904510818723 -0.1250308766382796 0  0.8668767636421114 0.1255591576030338 0  0.9754116371444833 0.0628928043742497 0  0.9754021224577029 0.1881893631214195 0  0.8668629130281992 0.2508426644318986 0  0.9753569972839978 0.3135148713980606 0  0.866839831793855 0.3761708347018111 0  0.9753431037724689 0.4388429871445935 0  0.866814648621348 0.5015010374276645 0  1.08393778919224 0.1255687039628436 0  0.9753369371520746 0.5641756407549315 0  0.8667849648470651 0.6268301269324548 0  0.9753189275771859 0.6895148186252987 0  0.8667545615587615 0.7521740478557806 0  1.08385809393457 0.5015670232038342 0  0.758249404512794 0.5641705835239291 0  0.975302017944805 0.814871697805804 0  0.8667237648340388 0.8775175004498103 0  0.7581711938478721 0.8148596678356821 0  0.758152425351844 0.9401730681893621 0  0.8666825215745161 1.002861206150922 0  0.7581094324766745 1.065502470213594 0  0.758328044826707 0.3134677110852433 0  1.083954067831041 0.0001938695472883667 0  1.19252231816974 0.06290459522933686 0  1.19252567041104 -0.06251801314282313 0  1.301128126712873 0.0001827802610413903 0  1.301130552695204 -0.1252317881558162 0  1.301115330419242 0.1256342297122375 0  1.192511328347185 -0.1879356955324901 0  1.301122730134966 -0.2506554158895156 0  1.192479750429495 -0.3133640044251623 0  1.301109212144929 -0.376083371131565 0  1.192456591795897 -0.4387979527390329 0  1.301099955648029 -0.5015268693521127 0  1.192451042906288 -0.5642305205519469 0  1.083808608024566 -0.5015171362738394 0  1.083797611734733 -0.6269374026706226 0  1.192424372222687 -0.6896688318832552 0  1.083773414310783 -0.7523626977114914 0  0.9751635753458996 -0.6896283291284873 0  0.9751313738428584 -0.8150333902436167 0  0.8665379607358412 -0.7522956549768351 0  0.866507412012517 -0.8776920507112558 0  0.7579364824946339 -0.8149685185678733 0  0.7579105028675454 -0.9403375519043209 0  0.8664591563359163 -1.003063911606668 0  0.7578566498173244 -1.06570761780405 0  0.3248448173131987 0.06260863083124135 0  1.083893067089233 0.7522053392182682 0  0.6495916017573917 1.002804704420728 0  0.6495390695087485 1.128124720958234 0  0.6493286086035562 -1.002983876189425 0  0.6492444751237343 -1.12835303640501 0  1.083873907579097 0.8776032265043791 0  1.083719561562728 -0.8777731949711265 0  0.7580709241722678 1.190851653093661 0  0.649469894045057 1.253474513631031 0  0.7578032938091362 -1.191084253213334 0  0.6491623390451466 -1.253731681537431 0  1.409747204836514 -0.1879373177366649 0  1.40975761403562 0.06289241900658486 0  1.409749567615142 0.1883618295687293 0  1.192505181992844 0.8149134925192071 0  0.54105335710638 1.065408377512265 0  0.5411037179786489 0.9401445256473224 0  0.5407475291886857 -1.065617554551859 0  0.5408198401311859 -0.9403086694595302 0  0.8665959699553137 -0.6267497636797308 0  1.409760301898612 -0.4388112271479134 0  1.409753025387469 -0.5642873312765931 0  1.518426999819115 0.1256101644706334 0  1.518414924029519 0.2511054618769016 0  1.409727051028622 0.3138377764034209 0  0.4331763451889839 -0.3753049428747806 0  0.5415217642104331 -0.4379040554119423 0  0.4331118399901733 -0.5004930698386724 0  0.649839
[...]
<PointData  Scalars="f_257-1"> 
<DataArray  type="Float64"  Name="f_257-1"  format="ascii">1.0000000000000000e+01  1.0000000000000000e+01  1.5000000000000000e+02  1.0000000000000000e+01  1.5000000000000000e+02  1.5000000000000000e+02  1.5000000000000000e+02  1.5000000000000000e+02  1.5000000000000000e+02  1.5000000000000000e+02  1.5000000000000000e+02  1.5000000000000000e+02  1.5000000000000000e+02  1.5000000000000000e+02  1.5000000000000000e+02  1.5000000000000000e+02  1.5000000000000000e+02  1.4999999999999997e+02  1.4999999999999997e+02  1.5000000000000000e+02  1.5000000000000000e+02  1.5000000000000000e+02  1.5000000000000000e+02  1.5000000000000000e+02  1.5000000000000000e+02  1.5000000000000000e+02  1.5000000000000000e+02  1.5000000000000000e+02  1.5000000000000000e+02  1.5000000000000000e+02  1.5000000000000000e+02  1.5000000000000000e+02  1.5000000000000000e+02  1.5000000000000000e+02  1.5000000000000000e+02  1.5000000000000000e+02  1.5000000000000000e+02  1.5000000000000000e+02  1.5000000000000000e+02  1.5000000000000000e+02  1.5000000000000000e+02  1.4999999999999997e+02  1.5000000000000000e+02  1.5000000000000000e+02  1.5000000000000000e+02  1.5000000000000000e+02  1.5000000000000000e+02  1.5000000000000000e+02  1.5000000000000000e+02  1.5000000000000000e+02  1.5000000000000000e+02  1.5000000000000000e+02  1.0000000000000002e+01  1.0000000000000000e+01  1.0000000000000000e+01  1.0000000000000000e+01  1.0000000000000000e+01  1.0000000000000000e+01  1.0000000000000000e+01  1.0000000000000000e+01  1.0000000000000000e+01  1.0000000000000000e+01  1.0000000000000000e+01  1.0000000000000000e+01  1.0000000000000000e+01  1.0000000000000000e+01  1.0000000000000000e+01  1.0000000000000000e+01  1.0000000000000000e+01  1.0000000000000000e+01  1.0000000000000000e+01  1.0000000000000000e+01  1.0000000000000000e+01  1.0000000000000000e+01  1.0000000000000000e+01  1.0000000000000000e+01  1.0000000000000000e+01  9.9999999999999982e+00  1.0000000000000000e+01  1.0000000000000000e+01  1.0000000000000000e+01  1.0000000000000000e+01  1.0000000000000000e+01  1.0000000000000002e+01  1.0000000000000000e+01  1.0000000000000000e+01  1.0000000000000000e+01  1.0000000000000000e+01  1.0000000000000000e+01  1.0000000000000000e+01  1.0000000000000000e+01  1.0000000000000000e+01  1.0000000000000000e+01  1.0000000000000000e+01  1.0000000000000000e+01  1.0000000000000000e+01  1.0000000000000000e+01  1.0000000000000000e+01  1.0000000000000000e+01  1.0000000000000000e+01  1.2453822289090385e+02  1.0101557588633526e+02  8.0766621430257842e+01  6.3797829152141325e+01  4.9951824117086232e+01  3.9018854756784805e+01  3.0662337323264858e+01  2.4463109440110220e+01  1.9984018035621993e+01  1.6821061131721155e+01  1.4629580294916279e+01  1.3133119400010921e+01  1.2121866166365491e+01  1.1442147471038490e+01  1.0985542079251335e+01  1.0677493726778300e+01  1.0468027566922617e+01  1.0324164679242152e+01  1.0224378321582568e+01  1.0154655987964219e+01  1.0105785001133524e+01  1.0071576390939473e+01  1.0047787648143261e+01  1.0031414328380151e+01  1.0020296378937157e+01  1.0012868046851366e+01  1.0007985503141295e+01  1.0004826397658494e+01  1.0002806732602975e+01  1.0001511045627254e+01  1.0000645959030509e+01  1.0664983735306945e+01  1.2841174111898999e+02  3.5431581534110407e+01  1.1273927316189029e+01  1.2946419820279454e+01  1.0153929333369952e+01  1.3139338774725991e+02  1.0152699638289519e+01  2.3280424602363681e+01  1.0024047665162106e+01  1.3264738137145258e+02  1.0046656291097733e+01  4.6737441437685973e+01  1.0012142970068606e+01  1.3228938359580113e+02  1.0007180153295609e+01  1.1699009657689362e+02  1.3178740792762801e+02  1.0002148295632495e+01  1.0322377747365760e+01  1.1385970699821723e+01  1.6313024376839230e+01  7.5492192679876737e+01  1.0004391098549247e+01  1.3255830181140632e+02  1.0357707281531340e+01  1.0057404888128538e+01  1.3217800214017498e+02  1.3171629203070346e+01  1.3211351500776632e+02  1.0001005040763465e+01  1.1512202637673994e+02  1.0001220505807025e+01  1.0463087208570199e+01  1.0707548397488523e+01  1.1004089501247782e+01  1.1115944037203866e+01  1.0796368903728979e+01  1.1287781191316155e+01  1.0925227820390006e+01  1.1513832611529326e+01  1.2077866286840212e+01  1.1087107789057470e+01  1.2454280257346520e+01  1.3321485641918709e+01  1.3926150346499128e+01  1.5236173172216020e+01  1.6180110778245425e+01  1.4604954159387914e+01  1.8116821322413756e+01  1.9552160760829732e+01  2.2344746348516615e+01  2.0481804106755501e+01  2.5652956547070790e+01  2.3379374613848142e+01  2.9590273254896339e+01  2.6962021670027500e+01  2.4472217844546574e+01  3.4327803875467175e+01  3.1435835835709142e+01  4.0091219011443002e+01  3.7054719144848661e+01  3.8028934708850791e+01  2.4951209750015909e+01  4.7142308247905824e+01  4.4098314353188087e+01  3.4892834271497875e+01  4.2040694019894161e+01  5.2840752232749416e+01  5.1031978983770259e+01  1.8949901918288681e+01  2.1087360398999717e+01  2.6705343433024574e+01  2.2539722133078541e+01  2.8742023813018999e+01  2.3615958769996567e+01  3.4651735628597166e+01  1.9052716316137939e+01  1.9458197060232148e+01  1.6285793976874178e+01  1.6304090708589900e+01  1.4206034749724491e+01  1.4047648531356757e+01  1.2718705605757965e+01  1.2736280805579026e+01  1.1774686856840196e+01  1.1700601064365422e+01  1.1115795588360980e+01  1.1129818532103775e+01  1.0712464134153265e+01  1.0703455451851351e+01  1.0444258832502078e+01  1.0429428910809921e+01  1.0271340694461889e+01  1.0272834967823803e+01  1.0166909194456496e+01  1.1559420798251283e+01  5.1255138662423100e+01  4.0890757399805473e+01  5.0241557044671666e+01  1.0162790539170642e+01  1.0100204842497872e+01  5.9804629710290669e+01  1.0680330994525219e+01  6.2101962974616953e+01  6.1820431559640227e+01  1.0099782437418401e+01  1.0059985023204248e+01  2.3912271416366899e+01  3.7491668040439357e+01  4.5613780345770650e+01  6.5112662980589164e+01  4.0584360575364968e+01  3.2893609443010313e+01  1.0096264014373585e+01  1.0152511634634326e+01  1.1083995194898151e+01  1.5830545064852451e+01  1.3568480046506917e+01  4.9667112556277530e+01  6.0336910149321483e+01  5.3947653691799104e+01  1.0656620926552876e+01  1.0766910523530617e+01  1.0458783044327603e+01  1.1269998964764813e+01  7.5085018652813517e+01  7.5363218469410441e+01  7.5728775606645968e+01  6.2623344616800878e+01  7.6221432124124433e+01  7.7289182954141722e+01  1.0057683380683873e+01  1.0034727923963651e+01  1.0035492320893317e+01  1.0093809757994819e+01  1.0020563874005619e+01  7.0409195830725082e+01  6.2289878175349997e+01  8.1597881877516286e+01  1.0530402566608458e+01  1.0314929251544047e+01  3.2933725360122097e+01  2.6750862296200602e+01  6.4474815255223604e+01  8.0016319020096361e+01  1.0089460837370288e+01  1.0020775849663600e+01  1.0012018079731243e+01  7.1741380820221593e+01  9.0935576021302921e+01  1.0051659542185694e+01  7.9883486200906290e+01  1.4835184226455182e+01  1.2795547391230871e+01  9.0409708921008303e+01  9.2443461075621116e+01  1.0081635377075667e+01  1.0019227330978371e+01  9.1849900776025621e+01  8.9529991053712436e+01  6.6475860762248146e+01  5.1996559337218230e+01  1.0138893038090046e+01  1.0034686647726618e+01  5.1508553274899107e+01  1.0236131678163135e+01  2.7014129632689929e+01  2.2154872709174210e+01  2.2600646404926319e+01  1.8794310129598916e+01  1.9327782760518534e+01  1.6364316756065886e+01  1.6914700584184313e+01  1.4616062213469256e+01  1.5134719476525113e+01  1.5898572739705452e+01  1.2109847934918099e+01  1.2823982347837026e+01  6.9938685610466962e+01  8.6571078060344050e+01  1.0148690194368127e+01  1.0124213449170792e+01  1.8071363007787635e+01  1.0228829236314033e+01  4.7927179344176579e+01  1.0396072370511508e+01  5.5163476388064602e+01  1.6093044863741738e+01  2.2139506498043662e+01  6.7304891294436942e+01  8.3836333524798988e+01  1.0012147996637589e+01  1.0006996839270307e+01  7.0227629041308447e+01  1.1553042289076338e+01  1.1206726831241619e+01  1.0018847036569109e+02  1.0184760321067477e+01  1.0341262727973039e+01  1.6144016235356453e+01  2.0600065155230556e+01  1.3357322665207970e+01  1.3065035213793722e+01  7.8341802410161023e+01  9.5310708639168610e+01  7.9748386020239991e+01  1.0022818612832171e+02  1.0081652924289688e+01  1.0124827188302739e+01  1.0052454666553038e+01  9.7698701041348428e+01  1.0006612832433627e+01  1.0042524926866159e+01  1.0724170485967028e+02  1.0263313964066690e+01  1.0490056900719294e+01  1.0665486246877019e+02  1.0027666388158696e+01  1.0180429564144477e+02  1.0003928409455275e+01  1.0027751791037534e+02  4.9415229340956508e+01  3.8252976748564116e+01  3.3180507963365024e+01  1.1857008886353420e+01  1.1324791661092495e+02  1.1331841829363299e+02  1.0243724906961796e+02  1.2498442723924313e+02  1.0018650808867651e+01  1.0096123094481989e+01  1.0924877158700788e+01  6.8415767910065512e+01  1.0359104156619301e+01  1.0602502322762001e+01  1.2184993041865484e+01  1.3813370135894749e+01  8.8388967102853897e+01  1.7769738717540609e+01  1.0004136399009809e+01  1.0048825086013291e+01  1.0031291386281703e+01  2.3517870793853771e+01  1.0211762079504174e+01  1.0186653730084767e+01  1.0112438620536313e+01  1.2042562573689192e+01  1.0398487457440078e+01  1.0663145267124140e+01  4.1073826978416250e+01  3.3611369065714570e+01  1.0020319227728505e+01  1.0012063354712065e+01  5.3459549971290876e+01  5.6184871622401936e+01  4.2296075321981149e+01  3.4817970182084501e+01  2.7734935574195923e+01  1.0166087381344708e+01  1.0274030507914812e+01  1.0059262890821310e+01  1.8609844223619973e+01  1.8739688899072778e+01  1.4314820054632976e+01  1.4213088788755245e+01  1.1740089590870697e+01  1.2599582522798048e+01  1.4085729045099573e+01  1.3768217382399932e+01  1.2362635788333188e+01  1.3344437147600191e+01  1.1623684350584934e+01  2.7002692332025948e+01  1.0564529630762873e+01  1.6880489672587814e+01  1.0257798034076879e+01  1.8227193667426384e+01  4.1097832237846809e+01  3.6741789540513068e+01  5.0415632591017498e+01  1.0033085506122319e+01  1.2444364287749270e+01  1.4440108657842044e+01  3.3528789864558377e+01  2.9297213542006695e+01  1.0348637881046063e+01  3.9149354007384829e+01  3.1461066396002998e+01  1.1030225202796098e+01  5.6519141598860251e+01  1.0957659449691166e+01  1.5294394678314122e+01  1.1456025192169504e+01  1.0056424708868548e+01  1.2510898813944950e+01  1.2888297832779795e+01  1.0436335654706244e+01  1.0814834080726055e+01  1.0401475914721455e+01  2.1582533701479960e+01  1.0061566757343538e+01  7.9380857809839256e+01  1.3466287155016936e+01  1.3463389414860542e+01  1.9189628382445733e+01  1.1172157839145220e+02  1.1424335743026121e+02  2.0244754513233108e+01  9.2712099250092763e+01  1.0451795805618706e+02  3.0085998288655102e+01  1.7213142983299328e+01  5.5738867425578434e+01  1.1776838660813810e+01  1.0979457771202563e+02  1.1783359937163672e+01  4.4079741170924365e+01  1.0031985058726049e+01  1.0162698487818766e+01  6.3508151380544341e+01  9.0620827881488538e+01  1.0497981417762842e+01  2.2988090487701818e+01  1.0011350425745281e+01  1.0009697432840506e+01  9.4224798940232418e+01  1.0964371279943639e+02  1.1507328265265063e+01  2.7845815069724729e+01  1.1428497316117689e+01  1.5886355669738618e+01  1.0015431281368182e+01  8.9334712009177863e+01  1.1046594060299054e+02  2.8378075503158986e+01  1.0259185141093846e+01  6.6097827257949007e+01  1.0223603600292202e+01  3.2860003936110310e+01  4.2571818089349762e+01  3.0010687200510116e+01  1.0242240133054960e+01  1.0402005353985729e+01  8.1779491535474961e+01  4.9091368314266724e+01  1.0604741841886847e+01  9.9050406107440239e+01  2.7711630355586912e+01  1.0877284322193978e+01  1.2076506360053067e+01  1.0884846264179203e+01  1.1169050803550969e+02  1.0104886581240415e+01  6.3008013548334851e+01  7.0773298606400076e+01  1.0997179892748614e+01  8.9210794203551686e+01  1.0070550905831444e+01  2.2939684787524758e+01  2.3796147889358846e+01  1.2015050273655163e+01  1.2927643689831209e+01  1.4316137256834597e+01  1.6075036893601780e+01  1.9197563948140690e+01  2.2510271573131423e+01  1.1267678416359855e+02  1.2963103957337492e+02  2.8947651700167960e+01  1.0074769114312151e+01  1.0005696258789138e+01  1.0003611113673189e+01  3.6635908341656751e+01  1.0030370262207670e+01  1.0019414654608802e+01  4.4177110752723017e+01  1.0019679361957404e+01  5.9599742683952108e+01  7.0958098091823118e+01  1.0007427470198344e+01  9.4231058625768085e+01  1.0007218516225294e+01  1.1116988396903265e+02  1.0002470668701008e+01  1.0002010412925246e+01  1.0903370301466627e+01  1.0659863680049362e+01  1.1980175425352257e+02  1.2093917657155210e+02  1.6999572838811805e+01  1.2741076020930338e+02  1.0003414799062718e+01  1.0338104079963397e+01  1.1574986582980624e+02  1.3359622178796556e+02  1.0036143424488525e+01  1.0087098105957407e+01  1.3298263661416220e+02  1.1061061786728757e+02  1.6236360727857573e+01  1.0005791923937810e+01  1.2873828258552371e+02  1.3283860811006616e+02  1.3210270345272897e+02  1.0000706597321971e+01  1.0001364351746505e+01  1.3331999447572429e+02  1.0141450779726997e+01  1.1678646676751890e+02  1.0014507692724063e+01  1.3552093867020193e+02  1.1563024495553801e+01  1.3366673693427643e+02  1.0168286438796288e+01  1.3651780581414366e+02  1.0403859592444112e+01  1.1990844203401836e+02  1.0192403653254171e+01  1.3306650468773327e+02  1.0000516314703715e+01  1.0031888890299509e+01  1.2174636891216861e+02  1.3575358352633691e+02  1.0007927278815284e+01  1.1868434567452422e+02  1.0002251450449069e+01  1.2139575311083448e+02  1.0015011500688811e+01  1.3809877753506200e+02  9.2019448902868533e+01  3.9986733272822853e+01  7.4882238350110455e+01  1.2153434192227976e+01  1.0036238242998390e+01  1.0000255973082492e+01  3.6106310900890875e+01  7.3721435225041702e+01  1.0005675522804721e+01  1.0302027978600808e+01  1.0000218923916467e+01  6.3066365958741031e+01  1.0000835105225255e+01  6.9345844351384216e+01  1.0000142148898767e+01  1.1497822595972529e+01  1.0000175821547494e+01  1.6584072100653696e+01  1.0000104157668712e+01  6.8271398457138446e+01  9.9731006360835579e+00  1.0000066245031663e+01  6.7986253703514180e+01  1.0102812822995325e+01  1.0013920711825319e+01  1.0002241303358531e+01  1.0000066909086192e+01  2.5812558623387460e+01  1.0000173052780681e+01  6.4139665688535572e+01  6.8356730365354082e+01  1.0000256803559209e+01  7.1375019731841491e+01  1.0000040208237886e+01  7.2200889634505600e+01  1.0000049877925115e+01  6.1229848249478458e+01  1.0022214942061240e+01  9.9983493253600635e+00  9.9975455722676028e+00  1.0000240985532198e+01  1.0000276027655531e+01  1.0000384673749565e+01  1.0000358780268453e+01  1.0000392385425792e+01  1.0000412495111076e+01  1.0000371183057254e+01  1.0000440967064364e+01  1.0000462824327393e+01  1.0000491633999786e+01  1.0000515404445979e+01  1.0000543312638239e+01  1.0000517490573868e+01  1.0000568020422042e+01  1.0000609837505724e+01  1.0000643358572880e+01  1.0000592393333754e+01  1.0000678150941884e+01  1.0000621691423651e+01  1.0000674134827985e+01  1.0000664399192905e+01  1.0000658029633419e+01  1.0000518361050409e+01  1.0000622554309615e+01  1.0000503612009870e+01  1.0000615452396881e+01  1.0000624768828994e+01  1.0000251258252625e+01  1.0000181260624819e+01  1.0000557466462862e+01  1.0003959051084218e+01  1.0002473574873145e+01  1.0000533637825500e+01  1.0002164237881102e+01  1.0005825636328256e+01  1.0000639612452536e+01  1.0000247823061402e+01  1.0000391422428134e+01  1.0002613271029521e+01  1.0001190537586536e+01  1.0000525921312844e+01  1.0000558754682372e+01  1.0000575615200543e+01  1.0000525048854206e+01  1.0000554231782090e+01  1.0000555972638455e+01  1.0000511545885411e+01  1.0000497061455521e+01  1.0000462405506227e+01  1.0000471872648108e+01  1.0000428417459561e+01  1.0000417849543156e+01  1.0000386856712321e+01  1.0000375410946321e+01  1.0000347214271915e+01  1.0000334947208399e+01  1.0000309183546754e+01  1.0000319936469081e+01  1.0000284284518685e+01  1.0000293811548879e+01  1.0000260445130181e+01  1.0000435392591584e+01  1.0000148185050715e+01  1.0000112405154116e+01  1.0002067985268157e+01  1.0004124268889957e+01  1.0000296127802937e+01  1.0000249759173570e+01  1.0000227958921020e+01  1.0012127326709059e+01  1.0014344589348932e+01  1.0000237799399477e+01  1.0000207224572213e+01  1.0007452306736429e+01  1.0002467086845012e+01  1.0003745859467664e+01  1.0000477745542854e+01  1.0000320340138311e+01  1.0000216196270971e+01  1.0000217938783713e+01  1.0000404266997259e+01  1.0000506665798516e+01  9.9999516569346181e+00  1.0000570740768621e+01  1.0000484589142966e+01  1.0000280873618056e+01  9.9524219651924923e+00  1.0000438608359719e+01  1.0000303498735766e+01  1.0000328196988585e+01  1.0000301033459222e+01  1.0000334613693733e+01  1.0000333942320371e+01  9.9044793095340413e+00  9.8430714945337261e+00  9.8907085185762345e+00  1.0013532638067490e+01  9.8036716552924918e+00  1.0000216565581336e+01  1.0000187816240350e+01  1.0000177317198032e+01  1.0000159582660768e+01  9.8294312843336034e+00  9.8071212863222250e+00  1.0000480032159039e+01  9.8672260547630213e+00  9.9393510813652810e+00  1.0000306333399644e+01  1.0000483384560969e+01  1.0000607308781529e+01  1.0000670495891494e+01  1.0000541697235237e+01  1.0002023329843484e+01  9.9961941183582503e+00  9.8052734068772605e+00  1.0000148229506673e+01  1.0000131901926466e+01  1.0000265800512736e+01  1.0000244140236031e+01  9.9704149115561851e+00  1.0000337121245559e+01  9.7462837943209042e+00  9.5019516396794508e+00  1.0000169643080094e+01  9.9832248329702402e+00  9.8702813293135243e+00  1.1963790354382404e+01  1.0000437496267741e+01  1.0000469323279621e+01  1.0000518455523336e+01  1.0000288124042218e+01  1.0000349097031464e+01  1.0000394224518448e+01  9.9972007980959798e+00  1.0000165572248232e+01  1.0001733380899379e+01  1.0000344969492597e+01  1.0000520046184278e+01  1.0000574452361608e+01  9.8930924631445158e+00  9.8235539080267920e+00  9.8584876416981544e+00  9.8159273436765524e+00  1.0009053490832034e+01  1.0000245953615378e+01  1.0000223935800364e+01  1.0000252360517463e+01  9.9874359606151568e+00  1.0321123616052969e+01  9.9944774982225884e+00  1.0000245648208153e+01  1.0000262532317869e+01  9.9273405325717263e+00  9.8700480498752672e+00  1.0000120123967219e+01  1.0000104893827835e+01  1.0276264769964264e+01  1.0000701881333487e+01  9.9898443488892674e+00  1.0000237015566364e+01  1.0000203120576632e+01  1.0005019369891375e+01  1.0000534260698014e+01  1.0000870337161981e+01  1.0001929771542903e+01  1.0001361627328148e+01  9.9813574367047231e+00  1.0001193730630590e+01  1.0000363722220699e+01  1.0000402660213608e+01  1.0000395148435297e+01  9.9998405994034822e+00  9.8133779433462038e+00  1.1334700693662690e+01  1.1363799737200976e+01  1.0000115197463149e+01  1.0000306109375773e+01  1.0000221761995272e+01  1.5311057409887106e+01  1.0000328673103416e+01  1.4903995235991584e+01  1.0000198025911672e+01  1.3681916266452379e+01  1.0000089566935396e+01  1.3345592670892918e+01  1.1053614761156890e+01  1.7746510227040215e+01  1.0000478318668273e+01  1.8832071735095493e+01  1.3439675786928287e+01  1.0001379751340513e+01  4.3163175367133483e+01  1.0000162119092172e+01  2.2157961622370827e+01  3.2640115553207394e+01  1.0000391123064411e+01  1.0000916795672154e+01  4.9549633895496861e+01  1.0000243783259732e+01  1.0000369702138858e+01  1.0000414854044697e+01  1.0000441192273763e+01  1.0000462374220447e+01  1.0000311046510749e+01  1.0000275577820528e+01  1.0000282347427452e+01  1.0000433399257076e+01  1.0000068909435601e+01  1.2600201730966900e+01  9.9997935747115942e+00  9.9950510534703838e+00  1.0000223222549865e+01  1.0000189115628084e+01  1.0000170659535042e+01  1.0000066556927189e+01  1.0000080265521456e+01  1.0000208043633394e+01  1.0000227122896899e+01  9.9999899151013327e+00  1.0000326377214433e+01  1.0000480949661487e+01  1.0000388093371305e+01  1.0000136154511308e+01  1.0000082688178802e+01  9.9610818989876027e+00  9.9705057838236968e+00  1.0685596606252851e+01  9.9993036420292292e+00  9.98233163622