<?xml version="1.0"?>
<VTKFile type="UnstructuredGrid"  version="0.1"  >
<UnstructuredGrid>
<Piece  NumberOfPoints="1000" NumberOfCells="1898">
<Points>
<DataArray  type="Float64"  NumberOfComponents="3"  format="ascii">2 0 0  -2 0 0  0 2 0  0 -2 0  1.996053456837716 0.1255810393578731 0  1.984229402555223 0.2506664677122601 0  1.964574501275595 0.3747626301243862 0  1.937166321927573 0.4973797756137629 0  1.902113032058523 0.6180339903865582 0  1.859552970992176 0.7362491073503388 0  1.809654103857358 0.8515585854139588 0  1.752613358719046 0.9635073506930532 0  1.68865584926965 1.071653592690939 0  1.618033986646649 1.175570507479816 0  1.541026482962232 1.274847982627361 0  1.457937251802713 1.369094215094766 0  1.369094208649911 1.457937257854835 0  1.274847976447934 1.541026488074299 0  1.175570501763435 1.618033990799842 0  1.071653587205369 1.688655852750899 0  0.9635073455924 1.752613361523153 0  0.8515585806796591 1.80965410608515 0  0.7362491032109458 1.859552972631078 0  0.6180339868872777 1.902113033195508 0  0.4973797728345091 1.937166322641164 0  0.3747626280351212 1.964574501674144 0  0.2506664663712131 1.984229402724637 0  0.1255810386902028 1.996053456879722 0  -0.1255810393578731 1.996053456837716 0  -0.2506664677122601 1.984229402555223 0  -0.3747626301243862 1.964574501275595 0  -0.4973797756137629 1.937166321927573 0  -0.6180339903865582 1.902113032058523 0  -0.7362491073503388 1.859552970992176 0  -0.8515585854139588 1.809654103857358 0  -0.9635073506930532 1.752613358719046 0  -1.071653592690939 1.68865584926965 0  -1.175570507479816 1.618033986646649 0  -1.274847982627361 1.541026482962232 0  -1.369094215094766 1.457937251802713 0  -1.457937257854835 1.369094208649911 0  -1.541026488074299 1.274847976447934 0  -1.618033990799842 1.175570501763435 0  -1.688655852750899 1.071653587205369 0  -1.752613361523153 0.9635073455924 0  -1.80965410608515 0.8515585806796591 0  -1.859552972631078 0.7362491032109458 0  -1.902113033195508 0.6180339868872777 0  -1.937166322641164 0.4973797728345091 0  -1.964574501674144 0.3747626280351212 0  -1.984229402724637 0.2506664663712131 0  -1.996053456879722 0.1255810386902028 0  -1.996053456837716 -0.1255810393578731 0  -1.984229402555223 -0.2506664677122601 0  -1.964574501275595 -0.3747626301243862 0  -1.937166321927573 -0.4973797756137629 0  -1.902113032058523 -0.6180339903865582 0  -1.859552970992176 -0.7362491073503388 0  -1.809654103857358 -0.8515585854139588 0  -1.752613358719046 -0.9635073506930532 0  -1.68865584926965 -1.071653592690939 0  -1.618033986646649 -1.175570507479816 0  -1.541026482962232 -1.274847982627361 0  -1.457937251802713 -1.369094215094766 0  -1.369094208649911 -1.457937257854835 0  -1.274847976447934 -1.541026488074299 0  -1.175570501763435 -1.618033990799842 0  -1.071653587205369 -1.688655852750899 0  -0.9635073455924 -1.752613361523153 0  -0.8515585806796591 -1.80965410608515 0  -0.7362491032109458 -1.859552972631078 0  -0.6180339868872777 -1.902113033195508 0  -0.4973797728345091 -1.937166322641164 0  -0.3747626280351212 -1.964574501674144 0  -0.2506664663712131 -1.984229402724637 0  -0.1255810386902028 -1.996053456879722 0  0.1255810393578731 -1.996053456837716 0  0.2506664677122601 -1.984229402555223 0  0.3747626301243862 -1.964574501275595 0  0.4973797756137629 -1.937166321927573 0  0.6180339903865582 -1.902113032058523 0  0.7362491073503388 -1.859552970992176 0  0.8515585854139588 -1.809654103857358 0  0.9635073506930532 -1.752613358719046 0  1.071653592690939 -1.68865584926965 0  1.175570507479816 -1.618033986646649 0  1.274847982627361 -1.541026482962232 0  1.369094215094766 -1.457937251802713 0  1.457937257854835 -1.369094208649911 0  1.541026488074299 -1.274847976447934 0  1.618033990799842 -1.175570501763435 0  1.688655852750899 -1.071653587205369 0  1.752613361523153 -0.9635073455924 0  1.80965410608515 -0.8515585806796591 0  1.859552972631078 -0.7362491032109458 0  1.902113033195508 -0.6180339868872777 0  1.937166322641164 -0.4973797728345091 0  1.964574501674144 -0.3747626280351212 0  1.984229402724637 -0.2506664663712131 0  1.996053456879722 -0.1255810386902028 0  0 1.875000000000347 0  0 1.750000000000694 0  0 1.625000000001042 0  0 1.500000000001389 0  0 1.375000000001736 0  0 1.250000000002083 0  0 1.125000000002431 0  0 1.000000000002778 0  0 0.8750000000031248 0  0 0.7500000000034714 0  0 0.6250000000038181 0  0 0.5000000000041651 0  0 0.3750000000045119 0  0 0.2500000000048588 0  0 0.1250000000052054 0  0 5.509148692794952e-12 0  0 -0.1249999999947944 0  0 -0.2499999999951412 0  0 -0.3749999999954885 0  0 -0.4999999999958358 0  0 -0.6249999999961826 0  0 -0.7499999999965299 0  0 -0.8749999999968767 0  0 -0.9999999999972236 0  0 -1.124999999997571 0  0 -1.249999999997918 0  0 -1.374999999998265 0  0 -1.499999999998612 0  0 -1.624999999998959 0  0 -1.749999999999306 0  0 -1.874999999999653 0  0.1082566336411304 -0.06249721138958328 0  1.769978925506156 0.6331774562186441 0  1.903135250199003 -0.0421944281877976 0  1.792767445305666 -0.6282195673649206 0  0.1078956266195906 0.4379732200456621 0  0.1081271557368096 -0.5626689135955911 0  1.497668507878613 1.144813795188484 0  1.495381822911744 -1.145186948587215 0  0.1077698321064012 0.9381801610794744 0  1.157591104880423 -1.496075542580389 0  1.15761904203644 1.496061189440118 0  0.107575378454425 -0.9379662415906492 0  0.1074881112432003 1.313364166073589 0  0.1073778204410697 -1.313431641428223 0  0.8581342293190556 1.6841832595155 0  0.8581342337129338 -1.684183256634205 0  1.851368580255463 0.2906826398251708 0  0.5249232492507638 1.815716715781448 0  0.5247778178913532 -1.815859379803398 0  0.1082353668846179 -0.3125509518049559 0  0.1080661273743536 0.1877645712619083 0  0.1078389931990292 0.6880769333414208 0  0.1073280526202888 1.563564970749537 0  0.107160679408544 -1.563615704201531 0  1.331581140402051 1.343190159103474 0  1.626802386652038 -0.9547108573666147 0  1.331552991861951 -1.343226601516206 0  1.631290071630766 0.9577989114228483 0  1.84669162712044 -0.4306457728829043 0  0.2975456488863658 1.873063487819802 0  0.2974751810617229 -1.873107343544094 0  0.09992055001738553 1.810702223800652 0  0.09984374948150972 -1.810705277930003 0  0.1082634647023108 -0.1875124211170647 0  0.2165510801728112 -0.1250032029974569 0  0.2165375172674545 4.221557482128871e-05 0  0.3248562165324149 -0.06247441291907704 0  0.3248585342277372 -0.1875624957204239 0  0.4332059573819909 -0.1250129595067874 0  0.4331985536034745 -0.250149813714412 0  0.5415852610461236 -0.1875723568446455 0  0.5415782023182074 -0.06241747692835881 0  0.5415829075105126 -0.3127317546530641 0  0.6499951624913161 -0.1249882924353291 0  0.6499156431939851 0.0003411059576302356 0  0.7584280238324674 -0.0623683986668593 0  0.7583381724307633 0.06301562139675367 0  0.8668942700507976 0.0002683876425051863 0  0.866904510818723 -0.1250308766382796 0  0.8668767636421114 0.1255591576030338 0  0.9754116371444833 0.0628928043742497 0  0.9754021224577029 0.1881893631214195 0  0.8668629130281992 0.2508426644318986 0  0.9753569972839978 0.3135148713980606 0  0.866839831793855 0.3761708347018111 0  0.9753431037724689 0.4388429871445935 0  0.866814648621348 0.5015010374276645 0  1.08393778919224 0.1255687039628436 0  0.9753369371520746 0.5641756407549315 0  0.8667849648470651 0.6268301269324548 0  0.9753189275771859 0.6895148186252987 0  0.8667545615587615 0.7521740478557806 0  1.08385809393457 0.5015670232038342 0  0.758249404512794 0.5641705835239291 0  0.975302017944805 0.814871697805804 0  0.8667237648340388 0.8775175004498103 0  0.7581711938478721 0.8148596678356821 0  0.758152425351844 0.9401730681893621 0  0.8666825215745161 1.002861206150922 0  0.7581094324766745 1.065502470213594 0  0.758328044826707 0.3134677110852433 0  1.083954067831041 0.0001938695472883667 0  1.19252231816974 0.06290459522933686 0  1.19252567041104 -0.06251801314282313 0  1.301128126712873 0.0001827802610413903 0  1.301130552695204 -0.1252317881558162 0  1.301115330419242 0.1256342297122375 0  1.192511328347185 -0.1879356955324901 0  1.301122730134966 -0.2506554158895156 0  1.192479750429495 -0.3133640044251623 0  1.301109212144929 -0.376083371131565 0  1.192456591795897 -0.4387979527390329 0  1.301099955648029 -0.5015268693521127 0  1.192451042906288 -0.5642305205519469 0  1.083808608024566 -0.5015171362738394 0  1.083797611734733 -0.6269374026706226 0  1.192424372222687 -0.6896688318832552 0  1.083773414310783 -0.7523626977114914 0  0.9751635753458996 -0.6896283291284873 0  0.9751313738428584 -0.8150333902436167 0  0.8665379607358412 -0.7522956549768351 0  0.866507412012517 -0.8776920507112558 0  0.7579364824946339 -0.8149685185678733 0  0.7579105028675454 -0.9403375519043209 0  0.8664591563359163 -1.003063911606668 0  0.7578566498173244 -1.06570761780405 0  0.3248448173131987 0.06260863083124135 0  1.083893067089233 0.7522053392182682 0  0.6495916017573917 1.002804704420728 0  0.6495390695087485 1.128124720958234 0  0.6493286086035562 -1.002983876189425 0  0.6492444751237343 -1.12835303640501 0  1.083873907579097 0.8776032265043791 0  1.083719561562728 -0.8777731949711265 0  0.7580709241722678 1.190851653093661 0  0.649469894045057 1.253474513631031 0  0.7578032938091362 -1.191084253213334 0  0.6491623390451466 -1.253731681537431 0  1.409747204836514 -0.1879373177366649 0  1.40975761403562 0.06289241900658486 0  1.409749567615142 0.1883618295687293 0  1.192505181992844 0.8149134925192071 0  0.54105335710638 1.065408377512265 0  0.5411037179786489 0.9401445256473224 0  0.5407475291886857 -1.065617554551859 0  0.5408198401311859 -0.9403086694595302 0  0.8665959699553137 -0.6267497636797308 0  1.409760301898612 -0.4388112271479134 0  1.409753025387469 -0.5642873312765931 0  1.518426999819115 0.1256101644706334 0  1.518414924029519 0.2511054618769016 0  1.409727051028622 0.3138377764034209 0  0.4331763451889839 -0.3753049428747806 0  0.5415217642104331 -0.4379040554119423 0  0.4331118399901733 -0.5004930698386724 0  0.649839
[...]
<PointData  Scalars="f_209-1"> 
<DataArray  type="Float64"  Name="f_209-1"  format="ascii">1.0000000000000000e+01  1.0000000000000000e+01  1.5000000000000000e+02  1.0000000000000000e+01  1.5000000000000000e+02  1.5000000000000000e+02  1.5000000000000000e+02  1.5000000000000000e+02  1.5000000000000000e+02  1.5000000000000000e+02  1.5000000000000000e+02  1.5000000000000000e+02  1.5000000000000000e+02  1.5000000000000000e+02  1.5000000000000000e+02  1.5000000000000000e+02  1.5000000000000000e+02  1.4999999999999997e+02  1.4999999999999997e+02  1.5000000000000000e+02  1.5000000000000000e+02  1.5000000000000000e+02  1.5000000000000000e+02  1.5000000000000000e+02  1.5000000000000000e+02  1.5000000000000000e+02  1.5000000000000000e+02  1.5000000000000000e+02  1.5000000000000000e+02  1.5000000000000000e+02  1.5000000000000000e+02  1.5000000000000000e+02  1.5000000000000000e+02  1.5000000000000000e+02  1.5000000000000000e+02  1.5000000000000000e+02  1.5000000000000000e+02  1.5000000000000000e+02  1.5000000000000000e+02  1.5000000000000000e+02  1.5000000000000000e+02  1.4999999999999997e+02  1.5000000000000000e+02  1.5000000000000000e+02  1.5000000000000000e+02  1.5000000000000000e+02  1.5000000000000000e+02  1.5000000000000000e+02  1.5000000000000000e+02  1.5000000000000000e+02  1.5000000000000000e+02  1.5000000000000000e+02  1.0000000000000002e+01  1.0000000000000000e+01  1.0000000000000000e+01  1.0000000000000000e+01  1.0000000000000000e+01  1.0000000000000000e+01  1.0000000000000000e+01  1.0000000000000000e+01  1.0000000000000000e+01  1.0000000000000000e+01  1.0000000000000000e+01  1.0000000000000000e+01  1.0000000000000000e+01  1.0000000000000000e+01  1.0000000000000000e+01  1.0000000000000000e+01  1.0000000000000000e+01  1.0000000000000000e+01  1.0000000000000000e+01  1.0000000000000000e+01  1.0000000000000000e+01  1.0000000000000000e+01  1.0000000000000000e+01  1.0000000000000000e+01  1.0000000000000000e+01  9.9999999999999982e+00  1.0000000000000000e+01  1.0000000000000000e+01  1.0000000000000000e+01  1.0000000000000000e+01  1.0000000000000000e+01  1.0000000000000002e+01  1.0000000000000000e+01  1.0000000000000000e+01  1.0000000000000000e+01  1.0000000000000000e+01  1.0000000000000000e+01  1.0000000000000000e+01  1.0000000000000000e+01  1.0000000000000000e+01  1.0000000000000000e+01  1.0000000000000000e+01  1.0000000000000000e+01  1.0000000000000000e+01  1.0000000000000000e+01  1.0000000000000000e+01  1.0000000000000000e+01  1.0000000000000000e+01  1.2031229243627969e+02  9.3766410458213812e+01  7.1802177474465651e+01  5.4247883143467277e+01  4.0765864386301089e+01  3.0838540995850000e+01  2.3800765623737529e+01  1.8973646418512555e+01  1.5753454930462198e+01  1.3654175266195159e+01  1.2310335358859254e+01  1.1461102636853672e+01  1.0928774031194555e+01  1.0595804530285180e+01  1.0386775164141193e+01  1.0254257307939842e+01  1.0169014039039517e+01  1.0113217747883846e+01  1.0076065355779223e+01  1.0050992731257651e+01  1.0033946003252144e+01  1.0022344811101945e+01  1.0014496469724795e+01  1.0009245149740776e+01  1.0005783786259748e+01  1.0003543721351257e+01  1.0002121401690541e+01  1.0001235432301335e+01  1.0000692729420082e+01  1.0000361096561541e+01  1.0000150884338701e+01  1.0252923948627563e+01  1.2544656192546800e+02  3.4227856444503090e+01  1.0918578079990809e+01  1.1365075777620893e+01  1.0051908292325310e+01  1.2814183232560876e+02  1.0079257002877126e+01  1.8101114022328943e+01  1.0009703884123615e+01  1.2953951352946325e+02  1.0014422738493192e+01  3.7756930647562889e+01  1.0003386279904126e+01  1.2915288163478260e+02  1.0002447225373656e+01  1.1457297689400808e+02  1.2868495907540006e+02  1.0000616193665644e+01  1.0114919796752352e+01  1.0574347994439535e+01  1.3337894763422295e+01  6.6200439694676234e+01  1.0001134725633962e+01  1.2944091223343824e+02  1.0211123129230481e+01  1.0026181177501380e+01  1.2919955466489469e+02  1.2554859956513710e+01  1.2916105785729346e+02  1.0000259305546457e+01  1.0968270045633290e+02  1.0000294640075149e+01  1.0170186888636332e+01  1.0278477585143444e+01  1.0408610877624824e+01  1.0472995286675072e+01  1.0328017748264175e+01  1.0572403786236899e+01  1.0400553663917265e+01  1.0707544404528480e+01  1.0996522549966899e+01  1.0494876237724929e+01  1.1238125530590141e+01  1.1718308637855657e+01  1.2137441623533736e+01  1.2921225141741955e+01  1.3629575690426703e+01  1.2637804319026587e+01  1.4880798730848912e+01  1.6047088150639873e+01  1.7992213098080498e+01  1.6456019498243574e+01  2.0367683892520837e+01  1.8460742423994898e+01  2.3306606866702285e+01  2.1057062179709096e+01  1.9860533414563562e+01  2.7013223666580632e+01  2.4476404419018010e+01  3.1768163318781870e+01  2.9025059330545435e+01  3.0404393564968256e+01  1.9411367230432802e+01  3.7919877805954201e+01  3.5075079945474997e+01  2.7136415887197487e+01  3.3208016694109489e+01  4.3041153926524991e+01  4.1335357907762763e+01  1.5261756253241748e+01  1.7385661839425104e+01  2.1969669611404264e+01  1.8768786379965825e+01  2.4084574406379698e+01  1.9953082850768251e+01  2.8938614697569765e+01  1.6146903116354427e+01  1.6681725274566610e+01  1.4121138403757655e+01  1.4276780115615441e+01  1.2648094057273164e+01  1.2622334755186239e+01  1.1635791075726052e+01  1.1597182765621699e+01  1.0990888139815620e+01  1.0973978202068421e+01  1.0593837787666493e+01  1.0585285800076006e+01  1.0352315107060095e+01  1.0338173741200716e+01  1.0204166357732445e+01  1.0191655347513416e+01  1.0115933799256926e+01  1.0119599385967881e+01  1.0068129661609765e+01  1.0682423661452631e+01  4.1885435786318553e+01  3.2201261636043618e+01  4.0630723538249931e+01  1.0064687933644498e+01  1.0038094881529737e+01  4.9900805587489046e+01  1.0344210405198494e+01  5.1962935520791049e+01  5.1743706506146822e+01  1.0038855833861513e+01  1.0021787297911324e+01  2.0565185081558099e+01  3.2115897465380371e+01  3.9197709023055310e+01  5.5335072167762299e+01  3.1969983742176918e+01  2.5471291445181230e+01  1.0035580249752933e+01  1.0058728613908643e+01  1.0543603254919434e+01  1.4061011582475828e+01  1.2360404668090569e+01  4.3966523395444327e+01  5.3754589057184383e+01  4.6584621807342096e+01  1.0276796426967573e+01  1.0339434716775536e+01  1.0188050198047550e+01  1.0606827179218644e+01  6.5330792588456163e+01  6.5435373215520386e+01  6.5893581984805280e+01  5.2629500460891592e+01  6.6285242458594837e+01  6.7635912075967909e+01  1.0021415615529687e+01  1.0012043759783650e+01  1.0012022284881946e+01  1.0037281791819254e+01  1.0006661026072264e+01  6.3145246447092113e+01  5.4164136219332391e+01  7.2357652326128388e+01  1.0227703498821009e+01  1.0125258041764841e+01  2.5537821123133970e+01  2.0642687622730360e+01  5.4590033061387224e+01  7.0641966601911776e+01  1.0031999903283582e+01  1.0006560463631363e+01  1.0003634226073590e+01  6.2322540775963823e+01  8.2029229492957526e+01  1.0019548932658878e+01  7.2231952848672435e+01  1.3426724556126951e+01  1.1872324197065184e+01  8.4153979479053248e+01  8.3644407632633929e+01  1.0033024876881175e+01  1.0006374435800808e+01  8.3164089585852366e+01  8.1116556460398385e+01  6.1071844848690660e+01  4.7364906849786323e+01  1.0051592205110378e+01  1.0011434642557910e+01  4.1970886716647215e+01  1.0094521878752357e+01  2.0833984224979677e+01  1.7256692395977250e+01  1.7584651212963713e+01  1.4951178627612920e+01  1.5332429221227006e+01  1.3395782072237232e+01  1.3775955858865732e+01  1.2348286164151444e+01  1.2694942370814969e+01  1.3713405955009634e+01  1.1320470342948934e+01  1.1391010543934215e+01  5.9905238047951386e+01  7.7381597309962956e+01  1.0063252358328594e+01  1.0053666087092521e+01  1.6028367921725607e+01  1.0104198413965605e+01  4.0178762952276742e+01  1.0154570027157400e+01  4.6587255494250748e+01  1.3210520493931201e+01  1.7252541616649854e+01  5.7566263160139876e+01  7.4845751487933967e+01  1.0003576049639568e+01  1.0001975649162524e+01  6.6238567044645350e+01  1.0980385876038664e+01  1.0713119962204352e+01  9.2588728960897015e+01  1.0085332446555752e+01  1.0166365187602215e+01  1.4648774756215195e+01  1.8451633522496010e+01  1.1638838714587413e+01  1.1453360179148676e+01  6.8499466693023209e+01  8.6804717288358162e+01  7.1010346583963582e+01  9.3145491260233314e+01  1.0028137781172317e+01  1.0044530502700802e+01  1.0017425656863187e+01  8.9850391511182636e+01  1.0001918767428398e+01  1.0016384695634244e+01  1.0017842195908237e+02  1.0129935367312241e+01  1.0255600438389756e+01  9.9546585379878735e+01  1.0010033369550190e+01  9.4543258484241846e+01  1.0001070142032466e+01  9.4111440879497380e+01  4.6029922893851641e+01  3.4474214920075880e+01  3.0492351467256999e+01  1.1245767585629956e+01  1.0898399801276946e+02  1.0810320384255832e+02  9.7965894341099613e+01  1.2057523191745948e+02  1.0006908400526784e+01  1.0042534374756848e+01  1.0583427322649555e+01  6.6034828537250746e+01  1.0149131161076113e+01  1.0269852690868397e+01  1.0992318167003859e+01  1.1934578820359933e+01  7.9857482513859097e+01  1.4385015689938092e+01  1.0001093663135613e+01  1.0015629582460152e+01  1.0009667705757037e+01  1.8282723178040289e+01  1.0081517083263000e+01  1.0068752473026356e+01  1.0038398294731378e+01  1.0903819144144707e+01  1.0171915002161892e+01  1.0308411180602270e+01  3.2459733563694762e+01  2.6143204696572376e+01  1.0006236618407492e+01  1.0003451923294767e+01  4.3917981792515867e+01  4.6629490979599460e+01  3.3613603237402693e+01  2.7196541851018232e+01  2.1455299175195446e+01  1.0058405477678232e+01  1.0103983445254807e+01  1.0020983687420063e+01  1.4821557919493966e+01  1.4909653565870295e+01  1.2150135455084552e+01  1.2079164605305577e+01  1.0941375825251308e+01  1.1463090417776993e+01  1.2482656500608499e+01  1.2197297318089181e+01  1.1275685993014974e+01  1.1863284504945714e+01  1.0846512829757978e+01  2.0860461186839096e+01  1.0226325103282791e+01  1.3935756688000184e+01  1.0106866136525179e+01  1.5339837699290875e+01  3.4330299465120397e+01  2.9937694608959124e+01  4.0858005400875030e+01  1.0010576372764286e+01  1.1151681541716551e+01  1.2357159743326079e+01  2.5982814107068890e+01  2.2671850282274338e+01  1.0129550285571106e+01  3.4428813716195712e+01  2.5698381825063475e+01  1.0559978846884491e+01  4.7136002114585409e+01  1.0378994757951485e+01  1.3184799979881690e+01  1.0728062945687363e+01  1.0019396046508179e+01  1.1546526030280052e+01  1.1532600902431208e+01  1.0205470974060505e+01  1.0483428257921494e+01  1.0223653576874325e+01  1.7027889316768075e+01  1.0025355107796710e+01  7.3408849283729083e+01  1.2468832956117923e+01  1.2608758962139770e+01  1.6705160136285549e+01  1.0524080204140837e+02  1.0816309936863068e+02  1.6006745216831195e+01  8.4173479140955294e+01  9.7196899511345762e+01  2.5757625131812201e+01  1.4458120597557473e+01  4.5852387289846718e+01  1.0811869036987185e+01  1.0355116920781633e+02  1.0876476353058544e+01  3.5507683448226068e+01  1.0011330295566772e+01  1.0067927831339423e+01  5.3334938920258679e+01  8.1737598267807243e+01  1.0190255710986063e+01  2.0161428537458789e+01  1.0003519856925621e+01  1.0003075241362403e+01  8.5886711249955582e+01  1.0306513156801391e+02  1.0879746325357541e+01  2.1488771525387463e+01  1.0604236634524083e+01  1.3215168424616483e+01  1.0005229514628036e+01  8.4993943573180175e+01  1.0390082970979660e+02  2.2786173085216767e+01  1.0116042478021276e+01  5.5944924049096166e+01  1.0077495612799435e+01  2.6248758972397248e+01  3.4769028721565569e+01  2.6274391833584094e+01  1.0087603373648754e+01  1.0193037733686204e+01  7.2170857445153672e+01  4.0400731555128267e+01  1.0311408927357599e+01  9.1002202660645935e+01  2.4785792648341722e+01  1.0484251433371208e+01  1.1071303641604857e+01  1.0409935230936313e+01  1.0540445424439507e+02  1.0034404922171186e+01  5.3843514766413151e+01  6.2159706466980218e+01  1.0481770958855193e+01  8.1547734893225069e+01  1.0022485053050643e+01  2.0978740537102752e+01  2.2431263859041628e+01  1.0880103653028879e+01  1.1363872215782877e+01  1.2132093474089205e+01  1.3192673054084789e+01  1.5219871612861267e+01  1.7531713260819782e+01  1.0660945271288074e+02  1.2612132493696849e+02  2.2427457525465890e+01  1.0024748091773013e+01  1.0001696367278214e+01  1.0001096446519572e+01  2.8770951236704704e+01  1.0009089808725284e+01  1.0005614768535931e+01  3.5370127159317590e+01  1.0005857224358575e+01  5.0035036821110779e+01  6.1411912834740221e+01  1.0001994499352190e+01  8.6309047650040455e+01  1.0001985105818161e+01  1.0513820871244886e+02  1.0000615905486995e+01  1.0000512362372055e+01  1.0607167018021574e+01  1.0367418624570254e+01  1.1480014321674510e+02  1.1643299825211743e+02  1.5631328049402480e+01  1.2511358811815357e+02  1.0000957643894207e+01  1.0177565595627453e+01  1.1021401575063915e+02  1.3064044760532400e+02  1.0015568931022585e+01  1.0042292343437170e+01  1.2996895246473258e+02  1.0905182459831133e+02  1.5312241765955211e+01  1.0001867306525400e+01  1.2503150781750553e+02  1.2996489252361815e+02  1.2917421696991008e+02  1.0000173220924829e+01  1.0000369909921906e+01  1.3078377823917276e+02  1.0066935278233823e+01  1.1112144367472500e+02  1.0005598752142461e+01  1.3292793162151273e+02  1.1194129248535551e+01  1.3169624493720104e+02  1.0092964545455692e+01  1.3419442949092596e+02  1.0254696362616764e+01  1.1477978436646563e+02  1.0096203045337750e+01  1.3028800673060954e+02  1.0000122522093148e+01  1.0012515633168519e+01  1.1682929127578163e+02  1.3321576127054362e+02  1.0002821975880583e+01  1.1365675989504426e+02  1.0000602515880077e+01  1.1646454645636896e+02  1.0005301644301843e+01  1.3618445870276955e+02  8.8882153741335088e+01  3.7684519680803817e+01  7.3878406350986992e+01  1.1520317758917260e+01  1.0001689225423886e+01  1.0000327146960688e+01  3.1892312549713875e+01  6.4757736232288067e+01  9.9998416282324580e+00  1.0058494966340874e+01  1.0000244388317780e+01  5.3543597975203610e+01  9.9999587032233421e+00  5.9980010896063597e+01  1.0000159441565732e+01  1.0489256023404327e+01  1.0000017970440176e+01  1.3202878600634467e+01  1.0000116341922631e+01  5.8964972470953036e+01  9.9884639844300853e+00  1.0000073486294072e+01  5.8856672510431721e+01  1.0011930428154486e+01  9.9999816356278632e+00  9.9998896187061792e+00  1.0000027714762705e+01  1.9660973531487574e+01  1.0000193609264299e+01  5.4502901533840202e+01  5.9050942200456362e+01  1.0000287692313824e+01  6.2119155385130995e+01  1.0000044322167508e+01  6.2503865325926704e+01  1.0000026228583490e+01  4.8593782077883148e+01  1.0000434641668299e+01  9.9995775578733905e+00  9.9991253807012050e+00  1.0000397188761822e+01  1.0000362647319978e+01  1.0000370809291509e+01  1.0000350659740553e+01  1.0000396070781168e+01  1.0000416579135933e+01  1.0000374432950434e+01  1.0000444654936379e+01  1.0000466983713864e+01  1.0000495445888186e+01  1.0000519551839893e+01  1.0000549628760245e+01  1.0000522509470432e+01  1.0000575709583144e+01  1.0000597816089742e+01  1.0000622814631507e+01  1.0000600116179708e+01  1.0000654444665507e+01  1.0000621094554793e+01  1.0000719457911485e+01  1.0000645547090297e+01  1.0000726260760853e+01  1.0000767132492934e+01  1.0000747701818545e+01  1.0000481193765756e+01  1.0000598773143986e+01  1.0000682794147107e+01  1.0000481991504969e+01  1.0000581072641019e+01  1.0000554198126260e+01  9.9994941522910779e+00  9.9991521332000772e+00  1.0000545413664415e+01  9.9999822726234679e+00  1.0001958497062246e+01  1.0000671521983771e+01  1.0000573616160112e+01  1.0000642234969144e+01  9.9996181202685772e+00  1.0000078217331282e+01  1.0000656451237209e+01  1.0000473503260462e+01  1.0000608698260068e+01  1.0000612676434500e+01  1.0000553269341410e+01  1.0000576925654872e+01  1.0000512302353112e+01  1.0000500485851832e+01  1.0000465760116841e+01  1.0000475261275289e+01  1.0000431197076525e+01  1.0000420605389271e+01  1.0000389386929530e+01  1.0000377918514319e+01  1.0000349486567048e+01  1.0000337170004554e+01  1.0000311195662151e+01  1.0000321995574852e+01  1.0000286104063685e+01  1.0000295682831490e+01  1.0000262095304175e+01  1.0000438281575899e+01  1.0000434942235936e+01  1.0000623521473095e+01  9.9988363217878238e+00  9.9994468080040679e+00  1.0000298075286983e+01  1.0000251341598402e+01  1.0000229388206888e+01  1.0010749576697275e+01  1.0014670673259602e+01  1.0000239285066352e+01  1.0000208503365402e+01  1.0015981482850567e+01  1.0020050469623508e+01  1.0001883142243512e+01  1.0000480134087070e+01  1.0000322499098377e+01  1.0000217573477098e+01  1.0000492301800529e+01  1.0000407018012300e+01  1.0000487862045015e+01  1.0011758286463106e+01  1.0000528261857479e+01  1.0000478884511868e+01  1.0000282832421373e+01  1.0009562743493019e+01  1.0000441442558680e+01  1.0000305710974965e+01  1.0000330285547658e+01  1.0000302862314879e+01  1.0000330038766359e+01  1.0000335943037042e+01  1.0009858328724933e+01  9.9962921732014181e+00  9.9984948975028303e+00  1.0020578480813123e+01  9.9577883880538280e+00  1.0000217765859105e+01  1.0000188800364722e+01  1.0000178403915488e+01  1.0000160426715432e+01  9.9561597264018662e+00  9.9125785417509249e+00  1.0000480424910597e+01  9.9229400969153474e+00  9.9954108068932399e+00  1.0000308016813550e+01  1.0000488149830806e+01  1.0000515868249877e+01  1.0000606714125750e+01  1.0000465533728194e+01  9.9999837764882287e+00  1.0022290738543736e+01  9.9126818456995913e+00  1.0000148986310554e+01  1.0000132561410616e+01  1.0000265645149645e+01  1.0000244479606305e+01  9.6798957216973349e+00  1.0000339420118843e+01  9.3704256709294853e+00  9.1380785176217039e+00  1.0000171084225677e+01  9.6917254438587879e+00  9.9218244737740982e+00  1.0157585546554706e+01  1.0000441455806426e+01  1.0000475272432832e+01  1.0000533492580621e+01  1.0000287134729046e+01  1.0000351951364920e+01  1.0000397180461269e+01  1.0000289324237880e+01  1.0000166379573157e+01  1.0000635432615757e+01  1.0000347363643341e+01  1.0000527031310533e+01  1.0000569161745382e+01  9.9854442252163107e+00  9.3941747145943637e+00  9.7149729345864966e+00  9.9574269291347459e+00  9.2564841217691107e+00  1.0000247300967082e+01  1.0000225757941745e+01  1.0000254553668499e+01  1.0018280668174699e+01  9.7822597403349185e+00  9.9997432035188591e+00  1.0000254931047214e+01  1.0000278791716024e+01  9.9635511896327547e+00  9.7616216009854000e+00  1.0000120774961916e+01  1.0000105579582879e+01  9.7494887112608080e+00  1.0000761917245228e+01  9.9982797979834075e+00  1.0000238563002446e+01  1.0000203880365497e+01  1.0000359332001425e+01  1.0000584409336161e+01  1.0000452897696585e+01  1.0001235253171783e+01  1.0003068722069800e+01  9.9993267528871748e+00  1.0000421558314791e+01  1.0000366030502239e+01  1.0000404971510028e+01  1.0000402526422127e+01  9.9853066096006611e+00  9.9036059531919562e+00  9.8569489988266437e+00  9.8841169310935548e+00  1.0000116896880291e+01  1.0000311165719724e+01  1.0000228880986318e+01  1.1663627224577253e+01  1.0000337230640458e+01  1.1381812749329573e+01  1.0000204128310182e+01  1.0867385521267616e+01  1.0000091455610605e+01  1.0593466654364519e+01  1.0101793504126940e+01  1.2899751856105258e+01  1.0000507167823143e+01  1.3983466178573623e+01  1.0907414473372480e+01  1.0004127101152633e+01  3.3795752114847723e+01  1.0000176990060780e+01  1.6244664253570285e+01  2.4804115157309358e+01  1.0000417038803310e+01  1.0000263578535595e+01  4.1632345838673828e+01  1.0000254576655811e+01  1.0000372359121755e+01  1.0000417828503791e+01  1.0000444429521520e+01  1.0000465694872249e+01  1.0000308704282519e+01  1.0000304097238313e+01  1.0000331756584547e+01  1.0000436389979221e+01  1.0000077041137047e+01  1.0197520098226867e+01  1.0000114663351903e+01  9.9910513224468858e+00  1.0000223842791106e+01  1.0000190925315337e+01  1.0000171829867464e+01  1.0000137477888137e+01  1.0000127366825321e+01  1.0000211091660329e+01  1.0000232425812040e+01  1.0000145398371172e+01  1.0000328885231635e+01  1.0000484685438337e+01  1.0000390801613753e+01  1.0000136873236114e+01  1.0000102749437682e+01  9.9722991390246651e+00  9.9874679211155737e+00  1.0026826328042917e+01  1.0001454125811737e+01  9.99499251414