<?xml version="1.0"?>
<VTKFile type="UnstructuredGrid"  version="0.1"  >
<UnstructuredGrid>
<Piece  NumberOfPoints="1000" NumberOfCells="1898">
<Points>
<DataArray  type="Float64"  NumberOfComponents="3"  format="ascii">2 0 0  -2 0 0  0 2 0  0 -2 0  1.996053456837716 0.1255810393578731 0  1.984229402555223 0.2506664677122601 0  1.964574501275595 0.3747626301243862 0  1.937166321927573 0.4973797756137629 0  1.902113032058523 0.6180339903865582 0  1.859552970992176 0.7362491073503388 0  1.809654103857358 0.8515585854139588 0  1.752613358719046 0.9635073506930532 0  1.68865584926965 1.071653592690939 0  1.618033986646649 1.175570507479816 0  1.541026482962232 1.274847982627361 0  1.457937251802713 1.369094215094766 0  1.369094208649911 1.457937257854835 0  1.274847976447934 1.541026488074299 0  1.175570501763435 1.618033990799842 0  1.071653587205369 1.688655852750899 0  0.9635073455924 1.752613361523153 0  0.8515585806796591 1.80965410608515 0  0.7362491032109458 1.859552972631078 0  0.6180339868872777 1.902113033195508 0  0.4973797728345091 1.937166322641164 0  0.3747626280351212 1.964574501674144 0  0.2506664663712131 1.984229402724637 0  0.1255810386902028 1.996053456879722 0  -0.1255810393578731 1.996053456837716 0  -0.2506664677122601 1.984229402555223 0  -0.3747626301243862 1.964574501275595 0  -0.4973797756137629 1.937166321927573 0  -0.6180339903865582 1.902113032058523 0  -0.7362491073503388 1.859552970992176 0  -0.8515585854139588 1.809654103857358 0  -0.9635073506930532 1.752613358719046 0  -1.071653592690939 1.68865584926965 0  -1.175570507479816 1.618033986646649 0  -1.274847982627361 1.541026482962232 0  -1.369094215094766 1.457937251802713 0  -1.457937257854835 1.369094208649911 0  -1.541026488074299 1.274847976447934 0  -1.618033990799842 1.175570501763435 0  -1.688655852750899 1.071653587205369 0  -1.752613361523153 0.9635073455924 0  -1.80965410608515 0.8515585806796591 0  -1.859552972631078 0.7362491032109458 0  -1.902113033195508 0.6180339868872777 0  -1.937166322641164 0.4973797728345091 0  -1.964574501674144 0.3747626280351212 0  -1.984229402724637 0.2506664663712131 0  -1.996053456879722 0.1255810386902028 0  -1.996053456837716 -0.1255810393578731 0  -1.984229402555223 -0.2506664677122601 0  -1.964574501275595 -0.3747626301243862 0  -1.937166321927573 -0.4973797756137629 0  -1.902113032058523 -0.6180339903865582 0  -1.859552970992176 -0.7362491073503388 0  -1.809654103857358 -0.8515585854139588 0  -1.752613358719046 -0.9635073506930532 0  -1.68865584926965 -1.071653592690939 0  -1.618033986646649 -1.175570507479816 0  -1.541026482962232 -1.274847982627361 0  -1.457937251802713 -1.369094215094766 0  -1.369094208649911 -1.457937257854835 0  -1.274847976447934 -1.541026488074299 0  -1.175570501763435 -1.618033990799842 0  -1.071653587205369 -1.688655852750899 0  -0.9635073455924 -1.752613361523153 0  -0.8515585806796591 -1.80965410608515 0  -0.7362491032109458 -1.859552972631078 0  -0.6180339868872777 -1.902113033195508 0  -0.4973797728345091 -1.937166322641164 0  -0.3747626280351212 -1.964574501674144 0  -0.2506664663712131 -1.984229402724637 0  -0.1255810386902028 -1.996053456879722 0  0.1255810393578731 -1.996053456837716 0  0.2506664677122601 -1.984229402555223 0  0.3747626301243862 -1.964574501275595 0  0.4973797756137629 -1.937166321927573 0  0.6180339903865582 -1.902113032058523 0  0.7362491073503388 -1.859552970992176 0  0.8515585854139588 -1.809654103857358 0  0.9635073506930532 -1.752613358719046 0  1.071653592690939 -1.68865584926965 0  1.175570507479816 -1.618033986646649 0  1.274847982627361 -1.541026482962232 0  1.369094215094766 -1.457937251802713 0  1.457937257854835 -1.369094208649911 0  1.541026488074299 -1.274847976447934 0  1.618033990799842 -1.175570501763435 0  1.688655852750899 -1.071653587205369 0  1.752613361523153 -0.9635073455924 0  1.80965410608515 -0.8515585806796591 0  1.859552972631078 -0.7362491032109458 0  1.902113033195508 -0.6180339868872777 0  1.937166322641164 -0.4973797728345091 0  1.964574501674144 -0.3747626280351212 0  1.984229402724637 -0.2506664663712131 0  1.996053456879722 -0.1255810386902028 0  0 1.875000000000347 0  0 1.750000000000694 0  0 1.625000000001042 0  0 1.500000000001389 0  0 1.375000000001736 0  0 1.250000000002083 0  0 1.125000000002431 0  0 1.000000000002778 0  0 0.8750000000031248 0  0 0.7500000000034714 0  0 0.6250000000038181 0  0 0.5000000000041651 0  0 0.3750000000045119 0  0 0.2500000000048588 0  0 0.1250000000052054 0  0 5.509148692794952e-12 0  0 -0.1249999999947944 0  0 -0.2499999999951412 0  0 -0.3749999999954885 0  0 -0.4999999999958358 0  0 -0.6249999999961826 0  0 -0.7499999999965299 0  0 -0.8749999999968767 0  0 -0.9999999999972236 0  0 -1.124999999997571 0  0 -1.249999999997918 0  0 -1.374999999998265 0  0 -1.499999999998612 0  0 -1.624999999998959 0  0 -1.749999999999306 0  0 -1.874999999999653 0  0.1082566336411304 -0.06249721138958328 0  1.769978925506156 0.6331774562186441 0  1.903135250199003 -0.0421944281877976 0  1.792767445305666 -0.6282195673649206 0  0.1078956266195906 0.4379732200456621 0  0.1081271557368096 -0.5626689135955911 0  1.497668507878613 1.144813795188484 0  1.495381822911744 -1.145186948587215 0  0.1077698321064012 0.9381801610794744 0  1.157591104880423 -1.496075542580389 0  1.15761904203644 1.496061189440118 0  0.107575378454425 -0.9379662415906492 0  0.1074881112432003 1.313364166073589 0  0.1073778204410697 -1.313431641428223 0  0.8581342293190556 1.6841832595155 0  0.8581342337129338 -1.684183256634205 0  1.851368580255463 0.2906826398251708 0  0.5249232492507638 1.815716715781448 0  0.5247778178913532 -1.815859379803398 0  0.1082353668846179 -0.3125509518049559 0  0.1080661273743536 0.1877645712619083 0  0.1078389931990292 0.6880769333414208 0  0.1073280526202888 1.563564970749537 0  0.107160679408544 -1.563615704201531 0  1.331581140402051 1.343190159103474 0  1.626802386652038 -0.9547108573666147 0  1.331552991861951 -1.343226601516206 0  1.631290071630766 0.9577989114228483 0  1.84669162712044 -0.4306457728829043 0  0.2975456488863658 1.873063487819802 0  0.2974751810617229 -1.873107343544094 0  0.09992055001738553 1.810702223800652 0  0.09984374948150972 -1.810705277930003 0  0.1082634647023108 -0.1875124211170647 0  0.2165510801728112 -0.1250032029974569 0  0.2165375172674545 4.221557482128871e-05 0  0.3248562165324149 -0.06247441291907704 0  0.3248585342277372 -0.1875624957204239 0  0.4332059573819909 -0.1250129595067874 0  0.4331985536034745 -0.250149813714412 0  0.5415852610461236 -0.1875723568446455 0  0.5415782023182074 -0.06241747692835881 0  0.5415829075105126 -0.3127317546530641 0  0.6499951624913161 -0.1249882924353291 0  0.6499156431939851 0.0003411059576302356 0  0.7584280238324674 -0.0623683986668593 0  0.7583381724307633 0.06301562139675367 0  0.8668942700507976 0.0002683876425051863 0  0.866904510818723 -0.1250308766382796 0  0.8668767636421114 0.1255591576030338 0  0.9754116371444833 0.0628928043742497 0  0.9754021224577029 0.1881893631214195 0  0.8668629130281992 0.2508426644318986 0  0.9753569972839978 0.3135148713980606 0  0.866839831793855 0.3761708347018111 0  0.9753431037724689 0.4388429871445935 0  0.866814648621348 0.5015010374276645 0  1.08393778919224 0.1255687039628436 0  0.9753369371520746 0.5641756407549315 0  0.8667849648470651 0.6268301269324548 0  0.9753189275771859 0.6895148186252987 0  0.8667545615587615 0.7521740478557806 0  1.08385809393457 0.5015670232038342 0  0.758249404512794 0.5641705835239291 0  0.975302017944805 0.814871697805804 0  0.8667237648340388 0.8775175004498103 0  0.7581711938478721 0.8148596678356821 0  0.758152425351844 0.9401730681893621 0  0.8666825215745161 1.002861206150922 0  0.7581094324766745 1.065502470213594 0  0.758328044826707 0.3134677110852433 0  1.083954067831041 0.0001938695472883667 0  1.19252231816974 0.06290459522933686 0  1.19252567041104 -0.06251801314282313 0  1.301128126712873 0.0001827802610413903 0  1.301130552695204 -0.1252317881558162 0  1.301115330419242 0.1256342297122375 0  1.192511328347185 -0.1879356955324901 0  1.301122730134966 -0.2506554158895156 0  1.192479750429495 -0.3133640044251623 0  1.301109212144929 -0.376083371131565 0  1.192456591795897 -0.4387979527390329 0  1.301099955648029 -0.5015268693521127 0  1.192451042906288 -0.5642305205519469 0  1.083808608024566 -0.5015171362738394 0  1.083797611734733 -0.6269374026706226 0  1.192424372222687 -0.6896688318832552 0  1.083773414310783 -0.7523626977114914 0  0.9751635753458996 -0.6896283291284873 0  0.9751313738428584 -0.8150333902436167 0  0.8665379607358412 -0.7522956549768351 0  0.866507412012517 -0.8776920507112558 0  0.7579364824946339 -0.8149685185678733 0  0.7579105028675454 -0.9403375519043209 0  0.8664591563359163 -1.003063911606668 0  0.7578566498173244 -1.06570761780405 0  0.3248448173131987 0.06260863083124135 0  1.083893067089233 0.7522053392182682 0  0.6495916017573917 1.002804704420728 0  0.6495390695087485 1.128124720958234 0  0.6493286086035562 -1.002983876189425 0  0.6492444751237343 -1.12835303640501 0  1.083873907579097 0.8776032265043791 0  1.083719561562728 -0.8777731949711265 0  0.7580709241722678 1.190851653093661 0  0.649469894045057 1.253474513631031 0  0.7578032938091362 -1.191084253213334 0  0.6491623390451466 -1.253731681537431 0  1.409747204836514 -0.1879373177366649 0  1.40975761403562 0.06289241900658486 0  1.409749567615142 0.1883618295687293 0  1.192505181992844 0.8149134925192071 0  0.54105335710638 1.065408377512265 0  0.5411037179786489 0.9401445256473224 0  0.5407475291886857 -1.065617554551859 0  0.5408198401311859 -0.9403086694595302 0  0.8665959699553137 -0.6267497636797308 0  1.409760301898612 -0.4388112271479134 0  1.409753025387469 -0.5642873312765931 0  1.518426999819115 0.1256101644706334 0  1.518414924029519 0.2511054618769016 0  1.409727051028622 0.3138377764034209 0  0.4331763451889839 -0.3753049428747806 0  0.5415217642104331 -0.4379040554119423 0  0.4331118399901733 -0.5004930698386724 0  0.649839
[...]
<PointData  Vectors="f_161-0"> 
<DataArray  type="Float64"  Name="f_161-0"  NumberOfComponents="3" format="ascii">0.0000000000000000e+00 0.0000000000000000e+00 0.0000000000000000e+00  0.0000000000000000e+00 -1.8729992818580354e-02 0.0000000000000000e+00  -1.5727434113150696e-02 0.0000000000000000e+00 0.0000000000000000e+00  0.0000000000000000e+00 -8.8110749404524315e-03 0.0000000000000000e+00  -4.0735180616101015e-03 0.0000000000000000e+00 0.0000000000000000e+00  -6.1825440790604317e-03 0.0000000000000000e+00 0.0000000000000000e+00  -7.7207530295862548e-03 0.0000000000000000e+00 0.0000000000000000e+00  -8.9564221023165514e-03 0.0000000000000000e+00 0.0000000000000000e+00  -1.0000451483773244e-02 0.0000000000000000e+00 0.0000000000000000e+00  -1.0907233262189033e-02 0.0000000000000000e+00 0.0000000000000000e+00  -1.1683922760176116e-02 0.0000000000000000e+00 0.0000000000000000e+00  -1.2361300030971191e-02 0.0000000000000000e+00 0.0000000000000000e+00  -1.2957170064988826e-02 0.0000000000000000e+00 0.0000000000000000e+00  -1.3466711365518405e-02 0.0000000000000000e+00 0.0000000000000000e+00  -1.3910866631201765e-02 0.0000000000000000e+00 0.0000000000000000e+00  -1.4284421055540749e-02 0.0000000000000000e+00 0.0000000000000000e+00  -1.4598126009347951e-02 0.0000000000000000e+00 0.0000000000000000e+00  -1.4851409308705805e-02 0.0000000000000000e+00 0.0000000000000000e+00  -1.5053565006910649e-02 0.0000000000000000e+00 0.0000000000000000e+00  -1.5212997511126276e-02 0.0000000000000000e+00 0.0000000000000000e+00  -1.5311688877036727e-02 0.0000000000000000e+00 0.0000000000000000e+00  -1.5380686105753990e-02 0.0000000000000000e+00 0.0000000000000000e+00  -1.5420801858050913e-02 0.0000000000000000e+00 0.0000000000000000e+00  -1.5431853075267945e-02 0.0000000000000000e+00 0.0000000000000000e+00  -1.5424430508504549e-02 0.0000000000000000e+00 0.0000000000000000e+00  -1.5414370641550532e-02 0.0000000000000000e+00 0.0000000000000000e+00  -1.5417358819896082e-02 0.0000000000000000e+00 0.0000000000000000e+00  -1.5477273998579221e-02 0.0000000000000000e+00 0.0000000000000000e+00  -1.6311458138697756e-02 -5.1344180486712944e-03 0.0000000000000000e+00  -1.5908627912630261e-02 -7.7998786692070254e-03 0.0000000000000000e+00  -1.5305170519408369e-02 -9.8323073692432785e-03 0.0000000000000000e+00  -1.4613722312585457e-02 -1.1462717040298179e-02 0.0000000000000000e+00  -1.3893923454896314e-02 -1.2825948366602538e-02 0.0000000000000000e+00  -1.3153987436999449e-02 -1.4007753422290544e-02 0.0000000000000000e+00  -1.2394224618205897e-02 -1.5034321384849607e-02 0.0000000000000000e+00  -1.1597098454100115e-02 -1.5925269681679052e-02 0.0000000000000000e+00  -1.0768368353242725e-02 -1.6709981374948446e-02 0.0000000000000000e+00  -9.9597706835694386e-03 -1.7357837107336557e-02 0.0000000000000000e+00  -9.1418880337849669e-03 -1.7943306034247711e-02 0.0000000000000000e+00  -8.3268959962520973e-03 -1.8419759496462022e-02 0.0000000000000000e+00  -7.5242314485670682e-03 -1.8815705552352058e-02 0.0000000000000000e+00  -6.7299565705401954e-03 -1.9133252838912491e-02 0.0000000000000000e+00  -5.9629684753156748e-03 -1.9374414924406367e-02 0.0000000000000000e+00  -5.1986072997713111e-03 -1.9537793321510646e-02 0.0000000000000000e+00  -4.4780073591292428e-03 -1.9645202494577255e-02 0.0000000000000000e+00  -3.7800046593250277e-03 -1.9675173570011743e-02 0.0000000000000000e+00  -3.1233043781247372e-03 -1.9669717489828265e-02 0.0000000000000000e+00  -2.5179190911013500e-03 -1.9598719436585890e-02 0.0000000000000000e+00  -1.9518220745893065e-03 -1.9474721267920943e-02 0.0000000000000000e+00  -1.4362327734808783e-03 -1.9327672145886068e-02 0.0000000000000000e+00  -9.8386950043805261e-04 -1.9162169475281352e-02 0.0000000000000000e+00  -6.0226374940257788e-04 -1.8997562077263608e-02 0.0000000000000000e+00  0.0000000000000000e+00 -1.8374533303185590e-02 0.0000000000000000e+00  0.0000000000000000e+00 -1.8104596038970324e-02 0.0000000000000000e+00  0.0000000000000000e+00 -1.7857007136233921e-02 0.0000000000000000e+00  0.0000000000000000e+00 -1.7614321447308824e-02 0.0000000000000000e+00  0.0000000000000000e+00 -1.7374277691606550e-02 0.0000000000000000e+00  0.0000000000000000e+00 -1.7122292069751282e-02 0.0000000000000000e+00  0.0000000000000000e+00 -1.6853206081503005e-02 0.0000000000000000e+00  0.0000000000000000e+00 -1.6572643651137045e-02 0.0000000000000000e+00  0.0000000000000000e+00 -1.6270866053505771e-02 0.0000000000000000e+00  0.0000000000000000e+00 -1.5952192343319196e-02 0.0000000000000000e+00  0.0000000000000000e+00 -1.5612432193238632e-02 0.0000000000000000e+00  0.0000000000000000e+00 -1.5252489751134562e-02 0.0000000000000000e+00  0.0000000000000000e+00 -1.4871424271747650e-02 0.0000000000000000e+00  0.0000000000000000e+00 -1.4470423706421138e-02 0.0000000000000000e+00  0.0000000000000000e+00 -1.4046429097175900e-02 0.0000000000000000e+00  0.0000000000000000e+00 -1.3606753508760542e-02 0.0000000000000000e+00  0.0000000000000000e+00 -1.3144846448143791e-02 0.0000000000000000e+00  0.0000000000000000e+00 -1.2664900894394459e-02 0.0000000000000000e+00  0.0000000000000000e+00 -1.2165413004159879e-02 0.0000000000000000e+00  0.0000000000000000e+00 -1.1648492793161568e-02 0.0000000000000000e+00  0.0000000000000000e+00 -1.1114754104983356e-02 0.0000000000000000e+00  0.0000000000000000e+00 -1.0564015839895701e-02 0.0000000000000000e+00  0.0000000000000000e+00 -9.9963259826679664e-03 0.0000000000000000e+00  0.0000000000000000e+00 -9.4132481635921684e-03 0.0000000000000000e+00  0.0000000000000000e+00 -8.4321413009961245e-03 0.0000000000000000e+00  0.0000000000000000e+00 -8.0393080699825304e-03 0.0000000000000000e+00  0.0000000000000000e+00 -7.6385298324836842e-03 0.0000000000000000e+00  0.0000000000000000e+00 -7.2316135505492525e-03 0.0000000000000000e+00  0.0000000000000000e+00 -6.8220615890261073e-03 0.0000000000000000e+00  0.0000000000000000e+00 -6.4116101641716423e-03 0.0000000000000000e+00  0.0000000000000000e+00 -6.0027327659402281e-03 0.0000000000000000e+00  0.0000000000000000e+00 -5.5989261105237054e-03 0.0000000000000000e+00  0.0000000000000000e+00 -5.1988017918390859e-03 0.0000000000000000e+00  0.0000000000000000e+00 -4.8094872951369100e-03 0.0000000000000000e+00  0.0000000000000000e+00 -4.4256608717656420e-03 0.0000000000000000e+00  0.0000000000000000e+00 -4.0540529524813653e-03 0.0000000000000000e+00  0.0000000000000000e+00 -3.6934252392402944e-03 0.0000000000000000e+00  0.0000000000000000e+00 -3.3460160259657485e-03 0.0000000000000000e+00  0.0000000000000000e+00 -3.0123146665851277e-03 0.0000000000000000e+00  0.0000000000000000e+00 -2.6939689513201673e-03 0.0000000000000000e+00  0.0000000000000000e+00 -2.3897858007618355e-03 0.0000000000000000e+00  0.0000000000000000e+00 -2.1017882221042151e-03 0.0000000000000000e+00  0.0000000000000000e+00 -1.8281333401053441e-03 0.0000000000000000e+00  0.0000000000000000e+00 -1.5675385038230599e-03 0.0000000000000000e+00  0.0000000000000000e+00 -1.3092001804093970e-03 0.0000000000000000e+00  0.0000000000000000e+00 -1.0420393309539585e-03 0.0000000000000000e+00  0.0000000000000000e+00 -7.5346663282622290e-04 0.0000000000000000e+00  0.0000000000000000e+00 -4.5202959333890064e-04 0.0000000000000000e+00  -1.4242667490276481e-02 -2.0048140003299086e-03 0.0000000000000000e+00  -1.3206038457243028e-02 -3.2726070351025921e-03 0.0000000000000000e+00  -1.2297604101781358e-02 -4.2157647234392507e-03 0.0000000000000000e+00  -1.1447731522269433e-02 -4.9775704843988801e-03 0.0000000000000000e+00  -1.0636938097508070e-02 -5.6187578583856779e-03 0.0000000000000000e+00  -9.8508377990959659e-03 -6.1705188824197951e-03 0.0000000000000000e+00  -9.0835579471165561e-03 -6.6522280911072377e-03 0.0000000000000000e+00  -8.3323865993001588e-03 -7.0758772003738230e-03 0.0000000000000000e+00  -7.5971059611309923e-03 -7.4489916473236967e-03 0.0000000000000000e+00  -6.8789752571472868e-03 -7.7762444408554831e-03 0.0000000000000000e+00  -6.1802895613453515e-03 -8.0606611830496260e-03 0.0000000000000000e+00  -5.5043954215474675e-03 -8.3044766134481984e-03 0.0000000000000000e+00  -4.8550549226193352e-03 -8.5094810526252871e-03 0.0000000000000000e+00  -4.2364168995198907e-03 -8.6775808333709858e-03 0.0000000000000000e+00  -3.6526634057158515e-03 -8.8109851188283121e-03 0.0000000000000000e+00  -3.1076206664965092e-03 -8.9122582503391654e-03 0.0000000000000000e+00  -2.6046550875948953e-03 -8.9844444721202364e-03 0.0000000000000000e+00  -2.1463964504297409e-03 -9.0309898579954938e-03 0.0000000000000000e+00  -1.7345423135307239e-03 -9.0556107598648884e-03 0.0000000000000000e+00  -1.3698204578343053e-03 -9.0621489835383436e-03 0.0000000000000000e+00  -1.0519940274428092e-03 -9.0544560252688693e-03 0.0000000000000000e+00  -7.7995280344041824e-04 -9.0361627420295510e-03 0.0000000000000000e+00  -5.5183665096630538e-04 -9.0106278434747850e-03 0.0000000000000000e+00  -3.6508954008136703e-04 -8.9807756676508130e-03 0.0000000000000000e+00  -2.1688554052597437e-04 -8.9491432702995671e-03 0.0000000000000000e+00  -1.0413107926938988e-04 -8.9178150926533129e-03 0.0000000000000000e+00  -2.3590400927485655e-05 -8.8884793048598087e-03 0.0000000000000000e+00  2.7880201356612689e-05 -8.8624786263885903e-03 0.0000000000000000e+00  5.3225852914906799e-05 -8.8408641546811190e-03 0.0000000000000000e+00  5.5404331112837493e-05 -8.8246513678146531e-03 0.0000000000000000e+00  3.6667258761175932e-05 -8.8142199091166256e-03 0.0000000000000000e+00  -2.9486589170306214e-03 -8.4199749960849769e-03 0.0000000000000000e+00  -9.9989100054082500e-03 -7.4265178946024077e-04 0.0000000000000000e+00  -7.4556323665795113e-04 -9.6514599404110100e-04 0.0000000000000000e+00  -9.6811382099536736e-05 -1.8796918196862383e-03 0.0000000000000000e+00  -5.3786978473814914e-03 -7.8096127547801486e-03 0.0000000000000000e+00  -1.2325873021506364e-03 -8.5880904760991007e-03 0.0000000000000000e+00  -1.3157421768276547e-02 -5.5640236438992384e-04 0.0000000000000000e+00  -1.8251608544606401e-05 -3.3603363870632649e-03 0.0000000000000000e+00  -8.2716778440011223e-03 -6.5685788901519481e-03 0.0000000000000000e+00  1.4264833408583806e-05 -4.7776955614928802e-03 0.0000000000000000e+00  -1.4494935878518149e-02 -5.0611271457776433e-04 0.0000000000000000e+00  -4.5582305465168119e-04 -8.5691272495348626e-03 0.0000000000000000e+00  -1.0620792277709968e-02 -5.0955632380455321e-03 0.0000000000000000e+00  -5.4984820520578857e-05 -8.5177153450189773e-03 0.0000000000000000e+00  -1.4904398409028480e-02 -5.3214678232500041e-04 0.0000000000000000e+00  2.6130923460670504e-05 -5.9139839642473402e-03 0.0000000000000000e+00  -6.5956046071420412e-03 -1.1374013297924244e-03 0.0000000000000000e+00  -1.5009720726585008e-02 -5.9134572128852127e-04 0.0000000000000000e+00  3.2747015567954291e-05 -7.1035572744681712e-03 0.0000000000000000e+00  -1.9919891005111363e-03 -8.5445621742543821e-03 0.0000000000000000e+00  -4.0879336226407430e-03 -8.1839505540970310e-03 0.0000000000000000e+00  -6.7841894285970922e-03 -7.2771604589196128e-03 0.0000000000000000e+00  -1.2292597914537321e-02 -3.6961361850586507e-03 0.0000000000000000e+00  4.7779508083478621e-05 -8.4922801248740101e-03 0.0000000000000000e+00  -1.3995762806277920e-02 -5.1079921569346226e-04 0.0000000000000000e+00  -4.3356258090904350e-05 -2.7505655436138783e-03 0.0000000000000000e+00  1.8470907353727432e-06 -4.0746148877195852e-03 0.0000000000000000e+00  -1.2197996757782865e-02 -5.5685312022226720e-04 0.0000000000000000e+00  -1.6961254013033011e-04 -1.4767072200945665e-03 0.0000000000000000e+00  -1.5026400989371871e-02 -6.5473932107029101e-04 0.0000000000000000e+00  3.2911687355807319e-05 -7.8719985603420053e-03 0.0000000000000000e+00  -1.4140034213667411e-02 -1.7831694771438765e-03 0.0000000000000000e+00  4.9756211350197064e-05 -8.5062719082909122e-03 0.0000000000000000e+00  -2.4462680878957364e-03 -8.4943574150540737e-03 0.0000000000000000e+00  -2.7768024838377313e-03 -7.9577505902190676e-03 0.0000000000000000e+00  -3.3262378636620131e-03 -7.8583364096943761e-03 0.0000000000000000e+00  -3.1377546161354929e-03 -7.4263196947205058e-03 0.0000000000000000e+00  -2.5893639436722288e-03 -7.5186776906808863e-03 0.0000000000000000e+00  -2.9287333388874435e-03 -7.0140224577541228e-03 0.0000000000000000e+00  -2.3847528465705927e-03 -7.0958611036985456e-03 0.0000000000000000e+00  -2.6973210185625754e-03 -6.6143152775420700e-03 0.0000000000000000e+00  -3.2957053965663049e-03 -6.5204428335821490e-03 0.0000000000000000e+00  -2.1623971320313905e-03 -6.6828458908374791e-03 0.0000000000000000e+00  -3.0335003195157036e-03 -6.1450462558495528e-03 0.0000000000000000e+00  -3.6922005240635682e-03 -6.0411802832972070e-03 0.0000000000000000e+00  -3.3949321072125650e-03 -5.6907667481161375e-03 0.0000000000000000e+00  -4.1191648254525638e-03 -5.5778979635523075e-03 0.0000000000000000e+00  -3.7842744209541481e-03 -5.2529649913539795e-03 0.0000000000000000e+00  -3.0611557055863214e-03 -5.3365067791074361e-03 0.0000000000000000e+00  -4.5796603398968209e-03 -5.1306684588063260e-03 0.0000000000000000e+00  -4.2059471795306688e-03 -4.8313449482736848e-03 0.0000000000000000e+00  -5.0801269149873436e-03 -4.6973668253261873e-03 0.0000000000000000e+00  -5.4329870500525960e-03 -4.9632166050899958e-03 0.0000000000000000e+00  -6.0064275068554621e-03 -4.5116459957718442e-03 0.0000000000000000e+00  -6.3279123271624488e-03 -4.7478484558137191e-03 0.0000000000000000e+00  -6.9626790301470136e-03 -4.2740042731790363e-03 0.0000000000000000e+00  -7.2469741823052505e-03 -4.4855765195240772e-03 0.0000000000000000e+00  -4.6675725669384563e-03 -4.4229407835378650e-03 0.0000000000000000e+00  -7.9281300349999667e-03 -3.9891681647318857e-03 0.0000000000000000e+00  -8.1744340473930005e-03 -4.1803997488978114e-03 0.0000000000000000e+00  -8.8855597489214556e-03 -3.6645745790574759e-03 0.0000000000000000e+00  -9.0973318359554561e-03 -3.8378496578664587e-03 0.0000000000000000e+00  -7.6390978758333564e-03 -3.7973573623451208e-03 0.0000000000000000e+00  -7.4878189784398875e-03 -4.7027163744743508e-03 0.0000000000000000e+00  -9.8223548498081147e-03 -3.3079509295004658e-03 0.0000000000000000e+00  -1.0005462839206128e-02 -3.4637625454651180e-03 0.0000000000000000e+00  -9.2784581222839866e-03 -4.0143432804309520e-03 0.0000000000000000e+00  -1.0163501261024331e-02 -3.6193697377143509e-03 0.0000000000000000e+00  -1.0890911410508693e-02 -3.0630953977005093e-03 0.0000000000000000e+00  -1.1032223036380380e-02 -3.1955066730845177e-03 0.0000000000000000e+00  -5.7341072000409729e-03 -5.2291512707057361e-03 0.0000000000000000e+00  -3.7753207929108277e-03 -4.5176429111875626e-03 0.0000000000000000e+00  -4.1849420197251344e-03 -4.1294801707400528e-03 0.0000000000000000e+00  -3.2828555036408919e-03 -4.1779331125564294e-03 0.0000000000000000e+00  -3.6214574448392386e-03 -3.8033330938677533e-03 0.0000000000000000e+00  -2.7270284423121034e-03 -3.7982081075085428e-03 0.0000000000000000e+00  -4.6469777701097122e-03 -3.7460744048531604e-03 0.0000000000000000e+00  -2.5015208022156937e-03 -4.1836707080434030e-03 0.0000000000000000e+00  -1.9913443868411897e-03 -3.7627602288824663e-03 0.0000000000000000e+00  -1.8544554623483090e-03 -4.1701667198936459e-03 0.0000000000000000e+00  -1.4173885568619920e-03 -3.7291777260869221e-03 0.0000000000000000e+00  -1.3393338484725043e-03 -4.1584716915523279e-03 0.0000000000000000e+00  -9.8556244505908675e-04 -3.7175346747279495e-03 0.0000000000000000e+00  -9.4078452305595755e-04 -4.1618412609071408e-03 0.0000000000000000e+00  -1.2430795370018130e-03 -4.5920312396159164e-03 0.0000000000000000e+00  -8.7637377138082950e-04 -4.6066151399881058e-03 0.0000000000000000e+00  -6.3793678563037605e-04 -4.1850690314624607e-03 0.0000000000000000e+00  -5.9300645604270391e-04 -4.6350798312088373e-03 0.0000000000000000e+00  -7.9856170495161448e-04 -5.0528814224695988e-03 0.0000000000000000e+00  -5.3606115947186486e-04 -5.0845382830125834e-03 0.0000000000000000e+00  -7.1233672215009010e-04 -5.5007055921099668e-03 0.0000000000000000e+00  -4.7136226283087937e-04 -5.5332871526313750e-03 0.0000000000000000e+00  -6.2171188997960937e-04 -5.9492083945713254e-03 0.0000000000000000e+00  -4.0263056196520149e-04 -5.9804089026356195e-03 0.0000000000000000e+00  -2.8737695783789244e-04 -5.5729854589784116e-03 0.0000000000000000e+00  -2.3568214853901317e-04 -6.0164798110327808e-03 0.0000000000000000e+00  -3.7373637256936645e-03 -7.3043785759078616e-03 0.0000000000000000e+00  -9.6113933792732736e-03 -3.1463229464242688e-03 0.0000000000000000e+00  -1.0297884969917671e-02 -3.7812515273772762e-03 0.0000000000000000e+00  -1.1154204685593225e-02 -3.3292689445750825e-03 0.0000000000000000e+00  -3.3301604730084282e-04 -6.4245071366746866e-03 0.0000000000000000e+00  -1.8365315020915638e-04 -6.4554654346366067e-03 0.0000000000000000e+00  -1.0546090554852642e-02 -2.7787593936797993e-03 0.0000000000000000e+00  -3.7849753914042083e-04 -4.6777138527610311e-03 0.0000000000000000e+00  -1.1877777755231769e-02 -2.7454185829990777e-03 0.0000000000000000e+00  -1.1994173649986594e-02 -2.8463370681179705e-03 0.0000000000000000e+00  -1.1388907679231003e-04 -6.0575484073866741e-03 0.0000000000000000e+00  -7.6177287820958472e-05 -6.4900167641007596e-03 0.0000000000000000e+00  -2.1166518313752783e-03 -3.3637118008936211e-03 0.0000000000000000e+00  -4.0095429266970772e-03 -3.4342199527732605e-03 0.0000000000000000e+00  -5.1842550572362839e-03 -3.3488932595181079e-03 0.0000000000000000e+00  -1.0337770477127054e-02 -2.6163308261348160e-03 0.0000000000000000e+00  -1.0409479109232851e-02 -3.9572929682754453e-03 0.0000000000000000e+00  -9.5583242011987556e-03 -4.4041116014563782e-03 0.0000000000000000e+00  -2.6526853002977569e-04 -6.8637207778690888e-03 0.0000000000000000e+00  -4.4090397188196019e-04 -6.8415671576817832e-03 0.0000000000000000e+00  -1.0196534244354888e-03 -5.4740913473189578e-03 0.0000000000000000e+00  -1.0026981159940236e-03 -3.2710621576794879e-03 0.0000000000000000e+00  -6.6990403650143537e-04 -3.2796441889919592e-03 0.0000000000000000e+00  -4.4817287003049884e-03 -3.0498865533183338e-03 0.0000000000000000e+00  -5.8300191550574795e-03 -2.8996071289392805e-03 0.0000000000000000e+00  -6.4157710118604066e-03 -3.1586320306362077e-03 0.0000000000000000e+00  -1.9006014498334531e-03 -7.1550545015340366e-03 0.0000000000000000e+00  -1.6931323845486615e-03 -6.7322414164403925e-03 0.0000000000000000e+00  -1.4773715797058589e-03 -7.1969572322458548e-03 0.0000000000000000e+00  -1.9224611299047711e-03 -6.2745422132134479e-03 0.0000000000000000e+00  -1.1252610281210143e-02 -2.2415665324662364e-03 0.0000000000000000e+00  -1.2691694203351417e-02 -2.2712821981910676e-03 0.0000000000000000e+00  -1.2809366083674325e-02 -2.3341596343965315e-03 0.0000000000000000e+00  -1.2095842730307775e-02 -2.9485504284217272e-03 0.0000000000000000e+00  -1.2564588516534412e-02 -2.1945906574154590e-03 0.0000000000000000e+00  -1.2917771401728083e-02 -2.3885368008971248e-03 0.0000000000000000e+00  -3.0988971790248114e-05 -6.1033856477785741e-03 0.0000000000000000e+00  -5.1055332263144031e-06 -6.5281366392029002e-03 0.0000000000000000e+00  -4.0887703395115560e-05 -6.9150229804144014e-03 0.0000000000000000e+00  -5.8159598695213844e-05 -5.6722274240200042e-03 0.0000000000000000e+00  1.7758548124079201e-05 -6.9448754655181133e-03 0.0000000000000000e+00  -7.1638437766600744e-03 -2.6343076273852325e-03 0.0000000000000000e+00  -7.6276552817693731e-03 -2.8860719815493267e-03 0.0000000000000000e+00  -1.1046488185946756e-02 -2.0664674317297993e-03 0.0000000000000000e+00  -1.2895168119623854e-03 -6.7678666472474865e-03 0.0000000000000000e+00  -1.1144532446023339e-03 -7.2261683424553703e-03 0.0000000000000000e+00  -9.6601887629986991e-03 -4.6351823377740620e-03 0.0000000000000000e+00  -8.8272154313545296e-03 -5.0675363899365796e-03 0.0000000000000000e+00  -1.2181470917182703e-02 -3.0606977563722298e-03 0.0000000000000000e+00  -1.3016682828196700e-02 -2.4390600936851450e-03 0.0000000000000000e+00  -3.5632164178394092e-04 -7.2809