<?xml version="1.0"?>
<VTKFile type="UnstructuredGrid"  version="0.1"  >
<UnstructuredGrid>
<Piece  NumberOfPoints="1000" NumberOfCells="1898">
<Points>
<DataArray  type="Float64"  NumberOfComponents="3"  format="ascii">2 0 0  -2 0 0  0 2 0  0 -2 0  1.996053456837716 0.1255810393578731 0  1.984229402555223 0.2506664677122601 0  1.964574501275595 0.3747626301243862 0  1.937166321927573 0.4973797756137629 0  1.902113032058523 0.6180339903865582 0  1.859552970992176 0.7362491073503388 0  1.809654103857358 0.8515585854139588 0  1.752613358719046 0.9635073506930532 0  1.68865584926965 1.071653592690939 0  1.618033986646649 1.175570507479816 0  1.541026482962232 1.274847982627361 0  1.457937251802713 1.369094215094766 0  1.369094208649911 1.457937257854835 0  1.274847976447934 1.541026488074299 0  1.175570501763435 1.618033990799842 0  1.071653587205369 1.688655852750899 0  0.9635073455924 1.752613361523153 0  0.8515585806796591 1.80965410608515 0  0.7362491032109458 1.859552972631078 0  0.6180339868872777 1.902113033195508 0  0.4973797728345091 1.937166322641164 0  0.3747626280351212 1.964574501674144 0  0.2506664663712131 1.984229402724637 0  0.1255810386902028 1.996053456879722 0  -0.1255810393578731 1.996053456837716 0  -0.2506664677122601 1.984229402555223 0  -0.3747626301243862 1.964574501275595 0  -0.4973797756137629 1.937166321927573 0  -0.6180339903865582 1.902113032058523 0  -0.7362491073503388 1.859552970992176 0  -0.8515585854139588 1.809654103857358 0  -0.9635073506930532 1.752613358719046 0  -1.071653592690939 1.68865584926965 0  -1.175570507479816 1.618033986646649 0  -1.274847982627361 1.541026482962232 0  -1.369094215094766 1.457937251802713 0  -1.457937257854835 1.369094208649911 0  -1.541026488074299 1.274847976447934 0  -1.618033990799842 1.175570501763435 0  -1.688655852750899 1.071653587205369 0  -1.752613361523153 0.9635073455924 0  -1.80965410608515 0.8515585806796591 0  -1.859552972631078 0.7362491032109458 0  -1.902113033195508 0.6180339868872777 0  -1.937166322641164 0.4973797728345091 0  -1.964574501674144 0.3747626280351212 0  -1.984229402724637 0.2506664663712131 0  -1.996053456879722 0.1255810386902028 0  -1.996053456837716 -0.1255810393578731 0  -1.984229402555223 -0.2506664677122601 0  -1.964574501275595 -0.3747626301243862 0  -1.937166321927573 -0.4973797756137629 0  -1.902113032058523 -0.6180339903865582 0  -1.859552970992176 -0.7362491073503388 0  -1.809654103857358 -0.8515585854139588 0  -1.752613358719046 -0.9635073506930532 0  -1.68865584926965 -1.071653592690939 0  -1.618033986646649 -1.175570507479816 0  -1.541026482962232 -1.274847982627361 0  -1.457937251802713 -1.369094215094766 0  -1.369094208649911 -1.457937257854835 0  -1.274847976447934 -1.541026488074299 0  -1.175570501763435 -1.618033990799842 0  -1.071653587205369 -1.688655852750899 0  -0.9635073455924 -1.752613361523153 0  -0.8515585806796591 -1.80965410608515 0  -0.7362491032109458 -1.859552972631078 0  -0.6180339868872777 -1.902113033195508 0  -0.4973797728345091 -1.937166322641164 0  -0.3747626280351212 -1.964574501674144 0  -0.2506664663712131 -1.984229402724637 0  -0.1255810386902028 -1.996053456879722 0  0.1255810393578731 -1.996053456837716 0  0.2506664677122601 -1.984229402555223 0  0.3747626301243862 -1.964574501275595 0  0.4973797756137629 -1.937166321927573 0  0.6180339903865582 -1.902113032058523 0  0.7362491073503388 -1.859552970992176 0  0.8515585854139588 -1.809654103857358 0  0.9635073506930532 -1.752613358719046 0  1.071653592690939 -1.68865584926965 0  1.175570507479816 -1.618033986646649 0  1.274847982627361 -1.541026482962232 0  1.369094215094766 -1.457937251802713 0  1.457937257854835 -1.369094208649911 0  1.541026488074299 -1.274847976447934 0  1.618033990799842 -1.175570501763435 0  1.688655852750899 -1.071653587205369 0  1.752613361523153 -0.9635073455924 0  1.80965410608515 -0.8515585806796591 0  1.859552972631078 -0.7362491032109458 0  1.902113033195508 -0.6180339868872777 0  1.937166322641164 -0.4973797728345091 0  1.964574501674144 -0.3747626280351212 0  1.984229402724637 -0.2506664663712131 0  1.996053456879722 -0.1255810386902028 0  0 1.875000000000347 0  0 1.750000000000694 0  0 1.625000000001042 0  0 1.500000000001389 0  0 1.375000000001736 0  0 1.250000000002083 0  0 1.125000000002431 0  0 1.000000000002778 0  0 0.8750000000031248 0  0 0.7500000000034714 0  0 0.6250000000038181 0  0 0.5000000000041651 0  0 0.3750000000045119 0  0 0.2500000000048588 0  0 0.1250000000052054 0  0 5.509148692794952e-12 0  0 -0.1249999999947944 0  0 -0.2499999999951412 0  0 -0.3749999999954885 0  0 -0.4999999999958358 0  0 -0.6249999999961826 0  0 -0.7499999999965299 0  0 -0.8749999999968767 0  0 -0.9999999999972236 0  0 -1.124999999997571 0  0 -1.249999999997918 0  0 -1.374999999998265 0  0 -1.499999999998612 0  0 -1.624999999998959 0  0 -1.749999999999306 0  0 -1.874999999999653 0  0.1082566336411304 -0.06249721138958328 0  1.769978925506156 0.6331774562186441 0  1.903135250199003 -0.0421944281877976 0  1.792767445305666 -0.6282195673649206 0  0.1078956266195906 0.4379732200456621 0  0.1081271557368096 -0.5626689135955911 0  1.497668507878613 1.144813795188484 0  1.495381822911744 -1.145186948587215 0  0.1077698321064012 0.9381801610794744 0  1.157591104880423 -1.496075542580389 0  1.15761904203644 1.496061189440118 0  0.107575378454425 -0.9379662415906492 0  0.1074881112432003 1.313364166073589 0  0.1073778204410697 -1.313431641428223 0  0.8581342293190556 1.6841832595155 0  0.8581342337129338 -1.684183256634205 0  1.851368580255463 0.2906826398251708 0  0.5249232492507638 1.815716715781448 0  0.5247778178913532 -1.815859379803398 0  0.1082353668846179 -0.3125509518049559 0  0.1080661273743536 0.1877645712619083 0  0.1078389931990292 0.6880769333414208 0  0.1073280526202888 1.563564970749537 0  0.107160679408544 -1.563615704201531 0  1.331581140402051 1.343190159103474 0  1.626802386652038 -0.9547108573666147 0  1.331552991861951 -1.343226601516206 0  1.631290071630766 0.9577989114228483 0  1.84669162712044 -0.4306457728829043 0  0.2975456488863658 1.873063487819802 0  0.2974751810617229 -1.873107343544094 0  0.09992055001738553 1.810702223800652 0  0.09984374948150972 -1.810705277930003 0  0.1082634647023108 -0.1875124211170647 0  0.2165510801728112 -0.1250032029974569 0  0.2165375172674545 4.221557482128871e-05 0  0.3248562165324149 -0.06247441291907704 0  0.3248585342277372 -0.1875624957204239 0  0.4332059573819909 -0.1250129595067874 0  0.4331985536034745 -0.250149813714412 0  0.5415852610461236 -0.1875723568446455 0  0.5415782023182074 -0.06241747692835881 0  0.5415829075105126 -0.3127317546530641 0  0.6499951624913161 -0.1249882924353291 0  0.6499156431939851 0.0003411059576302356 0  0.7584280238324674 -0.0623683986668593 0  0.7583381724307633 0.06301562139675367 0  0.8668942700507976 0.0002683876425051863 0  0.866904510818723 -0.1250308766382796 0  0.8668767636421114 0.1255591576030338 0  0.9754116371444833 0.0628928043742497 0  0.9754021224577029 0.1881893631214195 0  0.8668629130281992 0.2508426644318986 0  0.9753569972839978 0.3135148713980606 0  0.866839831793855 0.3761708347018111 0  0.9753431037724689 0.4388429871445935 0  0.866814648621348 0.5015010374276645 0  1.08393778919224 0.1255687039628436 0  0.9753369371520746 0.5641756407549315 0  0.8667849648470651 0.6268301269324548 0  0.9753189275771859 0.6895148186252987 0  0.8667545615587615 0.7521740478557806 0  1.08385809393457 0.5015670232038342 0  0.758249404512794 0.5641705835239291 0  0.975302017944805 0.814871697805804 0  0.8667237648340388 0.8775175004498103 0  0.7581711938478721 0.8148596678356821 0  0.758152425351844 0.9401730681893621 0  0.8666825215745161 1.002861206150922 0  0.7581094324766745 1.065502470213594 0  0.758328044826707 0.3134677110852433 0  1.083954067831041 0.0001938695472883667 0  1.19252231816974 0.06290459522933686 0  1.19252567041104 -0.06251801314282313 0  1.301128126712873 0.0001827802610413903 0  1.301130552695204 -0.1252317881558162 0  1.301115330419242 0.1256342297122375 0  1.192511328347185 -0.1879356955324901 0  1.301122730134966 -0.2506554158895156 0  1.192479750429495 -0.3133640044251623 0  1.301109212144929 -0.376083371131565 0  1.192456591795897 -0.4387979527390329 0  1.301099955648029 -0.5015268693521127 0  1.192451042906288 -0.5642305205519469 0  1.083808608024566 -0.5015171362738394 0  1.083797611734733 -0.6269374026706226 0  1.192424372222687 -0.6896688318832552 0  1.083773414310783 -0.7523626977114914 0  0.9751635753458996 -0.6896283291284873 0  0.9751313738428584 -0.8150333902436167 0  0.8665379607358412 -0.7522956549768351 0  0.866507412012517 -0.8776920507112558 0  0.7579364824946339 -0.8149685185678733 0  0.7579105028675454 -0.9403375519043209 0  0.8664591563359163 -1.003063911606668 0  0.7578566498173244 -1.06570761780405 0  0.3248448173131987 0.06260863083124135 0  1.083893067089233 0.7522053392182682 0  0.6495916017573917 1.002804704420728 0  0.6495390695087485 1.128124720958234 0  0.6493286086035562 -1.002983876189425 0  0.6492444751237343 -1.12835303640501 0  1.083873907579097 0.8776032265043791 0  1.083719561562728 -0.8777731949711265 0  0.7580709241722678 1.190851653093661 0  0.649469894045057 1.253474513631031 0  0.7578032938091362 -1.191084253213334 0  0.6491623390451466 -1.253731681537431 0  1.409747204836514 -0.1879373177366649 0  1.40975761403562 0.06289241900658486 0  1.409749567615142 0.1883618295687293 0  1.192505181992844 0.8149134925192071 0  0.54105335710638 1.065408377512265 0  0.5411037179786489 0.9401445256473224 0  0.5407475291886857 -1.065617554551859 0  0.5408198401311859 -0.9403086694595302 0  0.8665959699553137 -0.6267497636797308 0  1.409760301898612 -0.4388112271479134 0  1.409753025387469 -0.5642873312765931 0  1.518426999819115 0.1256101644706334 0  1.518414924029519 0.2511054618769016 0  1.409727051028622 0.3138377764034209 0  0.4331763451889839 -0.3753049428747806 0  0.5415217642104331 -0.4379040554119423 0  0.4331118399901733 -0.5004930698386724 0  0.649839
[...]
<PointData  Vectors="u-0"> 
<DataArray  type="Float64"  Name="u-0"  NumberOfComponents="3" format="ascii">0.0000000000000000e+00 0.0000000000000000e+00 0.0000000000000000e+00  0.0000000000000000e+00 -1.8815759816525168e-02 0.0000000000000000e+00  -1.5389208117898295e-02 0.0000000000000000e+00 0.0000000000000000e+00  0.0000000000000000e+00 -8.9824139996474237e-03 0.0000000000000000e+00  -3.9165320455737743e-03 0.0000000000000000e+00 0.0000000000000000e+00  -5.9447504231067844e-03 0.0000000000000000e+00 0.0000000000000000e+00  -7.4223044290137432e-03 0.0000000000000000e+00 0.0000000000000000e+00  -8.6090242846754636e-03 0.0000000000000000e+00 0.0000000000000000e+00  -9.6119266639644700e-03 0.0000000000000000e+00 0.0000000000000000e+00  -1.0485233189495371e-02 0.0000000000000000e+00 0.0000000000000000e+00  -1.1235915685481428e-02 0.0000000000000000e+00 0.0000000000000000e+00  -1.1892064626157293e-02 0.0000000000000000e+00 0.0000000000000000e+00  -1.2472326013031989e-02 0.0000000000000000e+00 0.0000000000000000e+00  -1.2971360115993313e-02 0.0000000000000000e+00 0.0000000000000000e+00  -1.3408410549098870e-02 0.0000000000000000e+00 0.0000000000000000e+00  -1.3779426525171222e-02 0.0000000000000000e+00 0.0000000000000000e+00  -1.4094028186142112e-02 0.0000000000000000e+00 0.0000000000000000e+00  -1.4352110577703768e-02 0.0000000000000000e+00 0.0000000000000000e+00  -1.4561510804664796e-02 0.0000000000000000e+00 0.0000000000000000e+00  -1.4730635516769298e-02 0.0000000000000000e+00 0.0000000000000000e+00  -1.4842756530961400e-02 0.0000000000000000e+00 0.0000000000000000e+00  -1.4925449982758741e-02 0.0000000000000000e+00 0.0000000000000000e+00  -1.4980242348654211e-02 0.0000000000000000e+00 0.0000000000000000e+00  -1.5007556991731502e-02 0.0000000000000000e+00 0.0000000000000000e+00  -1.5017973467231922e-02 0.0000000000000000e+00 0.0000000000000000e+00  -1.5026121020339615e-02 0.0000000000000000e+00 0.0000000000000000e+00  -1.5046695567739504e-02 0.0000000000000000e+00 0.0000000000000000e+00  -1.5123840073231304e-02 0.0000000000000000e+00 0.0000000000000000e+00  -1.6006866338479652e-02 -5.0846096125798977e-03 0.0000000000000000e+00  -1.5642825089956257e-02 -7.7460631743190437e-03 0.0000000000000000e+00  -1.5063648790306361e-02 -9.7878362336360734e-03 0.0000000000000000e+00  -1.4389057634592460e-02 -1.1426600743201912e-02 0.0000000000000000e+00  -1.3681473135469691e-02 -1.2796148575765255e-02 0.0000000000000000e+00  -1.2950991447932877e-02 -1.3980325007141218e-02 0.0000000000000000e+00  -1.2200309445559136e-02 -1.5006062958890960e-02 0.0000000000000000e+00  -1.1415926691934784e-02 -1.5897911421815455e-02 0.0000000000000000e+00  -1.0601582836306170e-02 -1.6680713631157279e-02 0.0000000000000000e+00  -9.8051821916687668e-03 -1.7330672457428080e-02 0.0000000000000000e+00  -9.0021615128697621e-03 -1.7915092158704512e-02 0.0000000000000000e+00  -8.2001319961976515e-03 -1.8395170423348175e-02 0.0000000000000000e+00  -7.4113728860742733e-03 -1.8792450471359703e-02 0.0000000000000000e+00  -6.6311715739722004e-03 -1.9112232181599600e-02 0.0000000000000000e+00  -5.8757822555581575e-03 -1.9355992850422582e-02 0.0000000000000000e+00  -5.1291091230372355e-03 -1.9526177450775357e-02 0.0000000000000000e+00  -4.4198402267149155e-03 -1.9638054488893060e-02 0.0000000000000000e+00  -3.7372901203258676e-03 -1.9678628435098953e-02 0.0000000000000000e+00  -3.0926579206435939e-03 -1.9678914332591214e-02 0.0000000000000000e+00  -2.4992972931526559e-03 -1.9618929353419155e-02 0.0000000000000000e+00  -1.9456234159059868e-03 -1.9512530940099897e-02 0.0000000000000000e+00  -1.4376848049532276e-03 -1.9381076716440689e-02 0.0000000000000000e+00  -9.8774493894228637e-04 -1.9230865463220597e-02 0.0000000000000000e+00  -6.0199609525462237e-04 -1.9077500413412017e-02 0.0000000000000000e+00  0.0000000000000000e+00 -1.8458764472377348e-02 0.0000000000000000e+00  0.0000000000000000e+00 -1.8184767974870349e-02 0.0000000000000000e+00  0.0000000000000000e+00 -1.7932924498349424e-02 0.0000000000000000e+00  0.0000000000000000e+00 -1.7687696912055441e-02 0.0000000000000000e+00  0.0000000000000000e+00 -1.7446300185219171e-02 0.0000000000000000e+00  0.0000000000000000e+00 -1.7193815390152866e-02 0.0000000000000000e+00  0.0000000000000000e+00 -1.6925175503362928e-02 0.0000000000000000e+00  0.0000000000000000e+00 -1.6645923494629049e-02 0.0000000000000000e+00  0.0000000000000000e+00 -1.6346074813147121e-02 0.0000000000000000e+00  0.0000000000000000e+00 -1.6030025719878875e-02 0.0000000000000000e+00  0.0000000000000000e+00 -1.5693439987498347e-02 0.0000000000000000e+00  0.0000000000000000e+00 -1.5337241327206626e-02 0.0000000000000000e+00  0.0000000000000000e+00 -1.4960445468180945e-02 0.0000000000000000e+00  0.0000000000000000e+00 -1.4564212072561275e-02 0.0000000000000000e+00  0.0000000000000000e+00 -1.4145463371792209e-02 0.0000000000000000e+00  0.0000000000000000e+00 -1.3711461099390027e-02 0.0000000000000000e+00  0.0000000000000000e+00 -1.3255645677879129e-02 0.0000000000000000e+00  0.0000000000000000e+00 -1.2782168235530692e-02 0.0000000000000000e+00  0.0000000000000000e+00 -1.2289520634880006e-02 0.0000000000000000e+00  0.0000000000000000e+00 -1.1779762069389830e-02 0.0000000000000000e+00  0.0000000000000000e+00 -1.1253494068293051e-02 0.0000000000000000e+00  0.0000000000000000e+00 -1.0710515109284554e-02 0.0000000000000000e+00  0.0000000000000000e+00 -1.0150861913657296e-02 0.0000000000000000e+00  0.0000000000000000e+00 -9.5760487713187018e-03 0.0000000000000000e+00  0.0000000000000000e+00 -8.6089640409516815e-03 0.0000000000000000e+00  0.0000000000000000e+00 -8.2217828773819956e-03 0.0000000000000000e+00  0.0000000000000000e+00 -7.8267294803383899e-03 0.0000000000000000e+00  0.0000000000000000e+00 -7.4255570807498610e-03 0.0000000000000000e+00  0.0000000000000000e+00 -7.0217038392776550e-03 0.0000000000000000e+00  0.0000000000000000e+00 -6.6168499562605466e-03 0.0000000000000000e+00  0.0000000000000000e+00 -6.2134210827590377e-03 0.0000000000000000e+00  0.0000000000000000e+00 -5.8148346775199330e-03 0.0000000000000000e+00  0.0000000000000000e+00 -5.4196652576237693e-03 0.0000000000000000e+00  0.0000000000000000e+00 -5.0349656486415456e-03 0.0000000000000000e+00  0.0000000000000000e+00 -4.6552933575685048e-03 0.0000000000000000e+00  0.0000000000000000e+00 -4.2873058217105390e-03 0.0000000000000000e+00  0.0000000000000000e+00 -3.9296180139181004e-03 0.0000000000000000e+00  0.0000000000000000e+00 -3.5843341292065021e-03 0.0000000000000000e+00  0.0000000000000000e+00 -3.2516438433097261e-03 0.0000000000000000e+00  0.0000000000000000e+00 -2.9332492132784888e-03 0.0000000000000000e+00  0.0000000000000000e+00 -2.6270537886816220e-03 0.0000000000000000e+00  0.0000000000000000e+00 -2.3353845960889662e-03 0.0000000000000000e+00  0.0000000000000000e+00 -2.0547494951493757e-03 0.0000000000000000e+00  0.0000000000000000e+00 -1.7830671409917998e-03 0.0000000000000000e+00  0.0000000000000000e+00 -1.5093801600501036e-03 0.0000000000000000e+00  0.0000000000000000e+00 -1.2197505616798052e-03 0.0000000000000000e+00  0.0000000000000000e+00 -8.9897443142927770e-04 0.0000000000000000e+00  0.0000000000000000e+00 -5.4854677496995335e-04 0.0000000000000000e+00  -1.3913370284686467e-02 -1.9873763521453488e-03 0.0000000000000000e+00  -1.2890963449177331e-02 -3.2663453168663495e-03 0.0000000000000000e+00  -1.2003208249999456e-02 -4.2300025079743614e-03 0.0000000000000000e+00  -1.1177097827616118e-02 -5.0159732113305797e-03 0.0000000000000000e+00  -1.0390809627051608e-02 -5.6817959869850596e-03 0.0000000000000000e+00  -9.6290706982548619e-03 -6.2559743522092176e-03 0.0000000000000000e+00  -8.8853011724480246e-03 -6.7565080857128357e-03 0.0000000000000000e+00  -8.1563108045482873e-03 -7.1950530088402409e-03 0.0000000000000000e+00  -7.4416364487984808e-03 -7.5794717193358964e-03 0.0000000000000000e+00  -6.7424487859262311e-03 -7.9150798309115204e-03 0.0000000000000000e+00  -6.0610645424292644e-03 -8.2055983386613799e-03 0.0000000000000000e+00  -5.4008869122100138e-03 -8.4538955403170458e-03 0.0000000000000000e+00  -4.7657603756895602e-03 -8.6622711576517658e-03 0.0000000000000000e+00  -4.1599185940084295e-03 -8.8330032510266342e-03 0.0000000000000000e+00  -3.5876270938547073e-03 -8.9685545642043916e-03 0.0000000000000000e+00  -3.0527976328553583e-03 -9.0716524506068985e-03 0.0000000000000000e+00  -2.5588789243997756e-03 -9.1454390694180286e-03 0.0000000000000000e+00  -2.1085832353830111e-03 -9.1934149146965030e-03 0.0000000000000000e+00  -1.7036910421545000e-03 -9.2193254982395716e-03 0.0000000000000000e+00  -1.3450115766188004e-03 -9.2270287730996780e-03 0.0000000000000000e+00  -1.0323874070499030e-03 -9.2203854882327470e-03 0.0000000000000000e+00  -7.6478404752603662e-04 -9.2030334265153849e-03 0.0000000000000000e+00  -5.4041140498429141e-04 -9.1783383437123792e-03 0.0000000000000000e+00  -3.5677949564878910e-04 -9.1492303117701058e-03 0.0000000000000000e+00  -2.1112115176907722e-04 -9.1182522923542175e-03 0.0000000000000000e+00  -1.0039596461415189e-04 -9.0874934624980992e-03 0.0000000000000000e+00  -2.1416732822348990e-05 -9.0586450068017594e-03 0.0000000000000000e+00  2.8916810412882583e-05 -9.0330510838464318e-03 0.0000000000000000e+00  5.3511739076497935e-05 -9.0117621862643785e-03 0.0000000000000000e+00  5.5288864074543378e-05 -8.9957891138439799e-03 0.0000000000000000e+00  3.6467564462804170e-05 -8.9855108436768874e-03 0.0000000000000000e+00  -2.8977648357547928e-03 -8.5900766093467400e-03 0.0000000000000000e+00  -9.6056337005322213e-03 -7.5933082720933435e-04 0.0000000000000000e+00  -6.8704344024495087e-04 -1.0469087866454732e-03 0.0000000000000000e+00  -8.5667930216354755e-05 -2.0993416521774525e-03 0.0000000000000000e+00  -5.2791054935783371e-03 -7.9734389481015116e-03 0.0000000000000000e+00  -1.2104959571099473e-03 -8.7612522568568385e-03 0.0000000000000000e+00  -1.2671382885591612e-02 -5.5619519524049575e-04 0.0000000000000000e+00  -1.5139811648668162e-05 -3.5969531705625302e-03 0.0000000000000000e+00  -8.0962731321629067e-03 -6.7069073034623939e-03 0.0000000000000000e+00  1.5103008213797436e-05 -5.0031396034794949e-03 0.0000000000000000e+00  -1.4010370637941997e-02 -4.9760414447396362e-04 0.0000000000000000e+00  -4.4615986404587701e-04 -8.7437669543509525e-03 0.0000000000000000e+00  -1.0370136022512482e-02 -5.1763413464176273e-03 0.0000000000000000e+00  -5.2204063382584233e-05 -8.6933135551603598e-03 0.0000000000000000e+00  -1.4451489925954368e-02 -5.1967864302591917e-04 0.0000000000000000e+00  2.6328730909703536e-05 -6.1256983483646606e-03 0.0000000000000000e+00  -6.3355146916387415e-03 -1.1673083292454982e-03 0.0000000000000000e+00  -1.4603114362306255e-02 -5.7619991566288872e-04 0.0000000000000000e+00  3.2647474855365052e-05 -7.2992384619197399e-03 0.0000000000000000e+00  -1.9575500239973325e-03 -8.7163712319670746e-03 0.0000000000000000e+00  -4.0156183918454028e-03 -8.3517071054196278e-03 0.0000000000000000e+00  -6.6505033628651618e-03 -7.4328925712477964e-03 0.0000000000000000e+00  -1.1990808914171197e-02 -3.7203684122298734e-03 0.0000000000000000e+00  4.8316526133457754e-05 -8.6682345817152770e-03 0.0000000000000000e+00  -1.3503005802516087e-02 -5.0518259122418426e-04 0.0000000000000000e+00  -3.8083053507083795e-05 -2.9867710433367106e-03 0.0000000000000000e+00  3.4318027651563035e-06 -4.3069325559632879e-03 0.0000000000000000e+00  -1.1732088061348775e-02 -5.6178037988550197e-04 0.0000000000000000e+00  -1.5091717063948809e-04 -1.6713733488942343e-03 0.0000000000000000e+00  -1.4653135240279941e-02 -6.3970064636611047e-04 0.0000000000000000e+00  3.2731207685654172e-05 -8.0568449750387395e-03 0.0000000000000000e+00  -1.3802991215337537e-02 -1.7682220395210317e-03 0.0000000000000000e+00  4.9541312011416140e-05 -8.6820145690350813e-03 0.0000000000000000e+00  -2.4041651985012942e-03 -8.6653657673786254e-03 0.0000000000000000e+00  -2.7295234673448861e-03 -8.1372822742319002e-03 0.0000000000000000e+00  -3.2691285766629258e-03 -8.0372761816969000e-03 0.0000000000000000e+00  -3.0842061726802559e-03 -7.6138590861490460e-03 0.0000000000000000e+00  -2.5454331802315148e-03 -7.7065780940534755e-03 0.0000000000000000e+00  -2.8785055063157302e-03 -7.2091115948104021e-03 0.0000000000000000e+00  -2.3439190431840508e-03 -7.2912414742742557e-03 0.0000000000000000e+00  -2.6501680801446436e-03 -6.8160796342503337e-03 0.0000000000000000e+00  -3.2377385004898492e-03 -6.7214708758480393e-03 0.0000000000000000e+00  -2.1244124848201467e-03 -6.8849412603564520e-03 0.0000000000000000e+00  -2.9785049970035074e-03 -6.3517567090767705e-03 0.0000000000000000e+00  -3.6245569371230668e-03 -6.2462543051754254e-03 0.0000000000000000e+00  -3.3300227240530859e-03 -5.9003181927658630e-03 0.0000000000000000e+00  -4.0392537493302129e-03 -5.7843699131743210e-03 0.0000000000000000e+00  -3.7066437672548160e-03 -5.4624414098002000e-03 0.0000000000000000e+00  -2.9987281550067483e-03 -5.5497595079228275e-03 0.0000000000000000e+00  -4.4840120437878248e-03 -5.3350108645609752e-03 0.0000000000000000e+00  -4.1118696119175442e-03 -5.0368786505214499e-03 0.0000000000000000e+00  -4.9641849244700205e-03 -4.8950758801533049e-03 0.0000000000000000e+00  -5.3162737525064086e-03 -5.1608514722896780e-03 0.0000000000000000e+00  -5.8651737473376635e-03 -4.6996267091127643e-03 0.0000000000000000e+00  -6.1869371912076443e-03 -4.9369055849814627e-03 0.0000000000000000e+00  -6.7926926501017254e-03 -4.4500787234093460e-03 0.0000000000000000e+00  -7.0785313159393518e-03 -4.6637819081694889e-03 0.0000000000000000e+00  -4.5522839239440843e-03 -4.6196242110657223e-03 0.0000000000000000e+00  -7.7261966522661181e-03 -4.1507878543755976e-03 0.0000000000000000e+00  -7.9754475597454723e-03 -4.3449627112025343e-03 0.0000000000000000e+00  -8.6488700183678224e-03 -3.8087706175135112e-03 0.0000000000000000e+00  -8.8650353828020282e-03 -3.9854155763488922e-03 0.0000000000000000e+00  -7.4332773019781173e-03 -3.9544654869745864e-03 0.0000000000000000e+00  -7.3200294576123183e-03 -4.8816061944399964e-03 0.0000000000000000e+00  -9.5487234110943463e-03 -3.4314161011133409e-03 0.0000000000000000e+00  -9.7376419357532804e-03 -3.5905331631486564e-03 0.0000000000000000e+00  -9.0492833555406733e-03 -4.1634350414102980e-03 0.0000000000000000e+00  -9.9001564097093570e-03 -3.7474320592487485e-03 0.0000000000000000e+00  -1.0586226313524490e-02 -3.1652192892735278e-03 0.0000000000000000e+00  -1.0733430140985737e-02 -3.2982051852149170e-03 0.0000000000000000e+00  -5.6161678426727224e-03 -5.4256265442508998e-03 0.0000000000000000e+00  -3.6828823151329650e-03 -4.7234173314205548e-03 0.0000000000000000e+00  -4.0708891205695251e-03 -4.3239873044983133e-03 0.0000000000000000e+00  -3.1927521815540323e-03 -4.3829790657705769e-03 0.0000000000000000e+00  -3.5103371718210835e-03 -3.9945036096168734e-03 0.0000000000000000e+00  -2.6408718987914852e-03 -4.0016214196190170e-03 0.0000000000000000e+00  -4.5059642111773884e-03 -3.9228858295154850e-03 0.0000000000000000e+00  -2.4312349018517825e-03 -4.3971415409882345e-03 0.0000000000000000e+00  -1.9253751942496105e-03 -3.9759633238919539e-03 0.0000000000000000e+00  -1.8002204500894967e-03 -4.3899465337976932e-03 0.0000000000000000e+00  -1.3674081818754772e-03 -3.9496378755907594e-03 0.0000000000000000e+00  -1.2979153002123127e-03 -4.3826170082088261e-03 0.0000000000000000e+00  -9.4815164243440997e-04 -3.9430143056384528e-03 0.0000000000000000e+00  -9.0953389589952776e-04 -4.3887419691603820e-03 0.0000000000000000e+00  -1.2088427600991838e-03 -4.8164820303070403e-03 0.0000000000000000e+00  -8.5041965958918301e-04 -4.8322860002568604e-03 0.0000000000000000e+00  -6.1473017816828001e-04 -4.4134941223704415e-03 0.0000000000000000e+00  -5.7367858563150303e-04 -4.8611572045199640e-03 0.0000000000000000e+00  -7.7704208974100394e-04 -5.2753991929676055e-03 0.0000000000000000e+00  -5.2006274773669793e-04 -5.3067907219635892e-03 0.0000000000000000e+00  -6.9449512414298978e-04 -5.7187254381092902e-03 0.0000000000000000e+00  -4.5818454645857814e-04 -5.7506894122855614e-03 0.0000000000000000e+00  -6.0692508300156625e-04 -6.1618284351644230e-03 0.0000000000000000e+00  -3.9183095525471969e-04 -6.1922828729491551e-03 0.0000000000000000e+00  -2.7795835598286544e-04 -5.7896013537016887e-03 0.0000000000000000e+00  -2.2809384087177286e-04 -6.2275318035970757e-03 0.0000000000000000e+00  -3.6726879749477623e-03 -7.4913252784348941e-03 0.0000000000000000e+00  -9.3306820451594680e-03 -3.2646855598044379e-03 0.0000000000000000e+00  -1.0037814230819533e-02 -3.9083383387596453e-03 0.0000000000000000e+00  -1.0860137812443603e-02 -3.4301211422862678e-03 0.0000000000000000e+00  -3.2422197091633428e-04 -6.6304348959337457e-03 0.0000000000000000e+00  -1.7762062556810041e-04 -6.6606426099749981e-03 0.0000000000000000e+00  -1.0225873281664265e-02 -2.8736302299534984e-03 0.0000000000000000e+00  -3.6445465328134124e-04 -4.9036466360396960e-03 0.0000000000000000e+00  -1.1543572880191111e-02 -2.8192082938588675e-03 0.0000000000000000e+00  -1.1666284045860568e-02 -2.9171334205098927e-03 0.0000000000000000e+00  -1.0883830933493011e-04 -6.2677603581260911e-03 0.0000000000000000e+00  -7.2306723555088032e-05 -6.6944511194654529e-03 0.0000000000000000e+00  -2.0370963674597349e-03 -3.5648251643027136e-03 0.0000000000000000e+00  -3.8730975696908247e-03 -3.6044229200416365e-03 0.0000000000000000e+00  -5.0107525920173781e-03 -3.5010160001971028e-03 0.0000000000000000e+00  -1.0008284610498323e-02 -2.7050274268826898e-03 0.0000000000000000e+00  -1.0151694866944963e-02 -4.0808763159677925e-03 0.0000000000000000e+00  -9.3321262316957265e-03 -4.5498145515235457e-03 0.0000000000000000e+00  -2.5816513089298474e-04 -7.0634825379400348e-03 0.0000000000000000e+00  -4.3080392451007478e-04 -7.0419341951893470e-03 0.0000000000000000e+00  -9.9606378688315623e-04 -5.6924337626330689e-03 0.0000000000000000e+00  -9.5849467467771924e-04 -3.4916164940671131e-03 0.0000000000000000e+00  -6.3770702232535548e-04 -3.5059329892192805e-03 0.0000000000000000e+00  -4.3159486011870663e-03 -3.1914235531135264e-03 0.0000000000000000e+00  -5.6190906353152962e-03 -3.0205162142526096e-03 0.0000000000000000e+00  -6.2008653897926546e-03 -3.2918381438474067e-03 0.0000000000000000e+00  -1.8677675200053753e-03 -7.3505001788600538e-03 0.0000000000000000e+00  -1.6628813286150405e-03 -6.9343506148786538e-03 0.0000000000000000e+00  -1.4513156470948203e-03 -7.3922955835696094e-03 0.0000000000000000e+00  -1.8870991334811620e-03 -6.4826556726241260e-03 0.0000000000000000e+00  -1.0883074959774641e-02 -2.3059157583042514e-03 0.0000000000000000e+00  -1.2323888921208094e-02 -2.3146836622666232e-03 0.0000000000000000e+00  -1.2449538408298936e-02 -2.3734587792376069e-03 0.0000000000000000e+00  -1.1773362377966659e-02 -3.0138738821395240e-03 0.0000000000000000e+00  -1.2187898585975750e-02 -2.2397784150256935e-03 0.0000000000000000e+00  -1.2565337498472395e-02 -2.4218448967696670e-03 0.0000000000000000e+00  -2.7885780427557256e-05 -6.3127718949767125e-03 0.0000000000000000e+00  -2.8666899969249868e-06 -6.7318536713477477e-03 0.0000000000000000e+00  -3.8010768884736957e-05 -7.1135806486029183e-03 0.0000000000000000e+00  -5.4045881195659784e-05 -5.8871104189902575e-03 0.0000000000000000e+00  1.9280812450586203e-05 -7.1428616083477467e-03 0.0000000000000000e+00  -6.9048075395525483e-03 -2.7354352146019907e-03 0.0000000000000000e+00  -7.3687571189927515e-03 -2.9997238760710717e-03 0.0000000000000000e+00  -1.0666849481455718e-02 -2.1245169346206299e-03 0.0000000000000000e+00  -1.2657561097632946e-03 -6.9697535987194234e-03 0.0000000000000000e+00  -1.0941069905067340e-03 -7.4212755368378873e-03 0.0000000000000000e+00  -9.4343479328055872e-03 -4.7753937682817136e-03 0.0000000000000000e+00  -8.6300965920905956e-03 -5.2252601493756965e-03 0.0000000000000000e+00  -1.1863852686492248e-02 -3.1181254320014813e-03 0.0000000000000000e+00  -1.2671327146810411e-02 -2.4645781931305023e-03 0.0000000000000000e+00  -3.4801713072599860e-04 -7.474865415823