<?xml version="1.0"?>
<VTKFile type="UnstructuredGrid"  version="0.1"  >
<UnstructuredGrid>
<Piece  NumberOfPoints="1000" NumberOfCells="1898">
<Points>
<DataArray  type="Float64"  NumberOfComponents="3"  format="ascii">2 0 0  -2 0 0  0 2 0  0 -2 0  1.996053456837716 0.1255810393578731 0  1.984229402555223 0.2506664677122601 0  1.964574501275595 0.3747626301243862 0  1.937166321927573 0.4973797756137629 0  1.902113032058523 0.6180339903865582 0  1.859552970992176 0.7362491073503388 0  1.809654103857358 0.8515585854139588 0  1.752613358719046 0.9635073506930532 0  1.68865584926965 1.071653592690939 0  1.618033986646649 1.175570507479816 0  1.541026482962232 1.274847982627361 0  1.457937251802713 1.369094215094766 0  1.369094208649911 1.457937257854835 0  1.274847976447934 1.541026488074299 0  1.175570501763435 1.618033990799842 0  1.071653587205369 1.688655852750899 0  0.9635073455924 1.752613361523153 0  0.8515585806796591 1.80965410608515 0  0.7362491032109458 1.859552972631078 0  0.6180339868872777 1.902113033195508 0  0.4973797728345091 1.937166322641164 0  0.3747626280351212 1.964574501674144 0  0.2506664663712131 1.984229402724637 0  0.1255810386902028 1.996053456879722 0  -0.1255810393578731 1.996053456837716 0  -0.2506664677122601 1.984229402555223 0  -0.3747626301243862 1.964574501275595 0  -0.4973797756137629 1.937166321927573 0  -0.6180339903865582 1.902113032058523 0  -0.7362491073503388 1.859552970992176 0  -0.8515585854139588 1.809654103857358 0  -0.9635073506930532 1.752613358719046 0  -1.071653592690939 1.68865584926965 0  -1.175570507479816 1.618033986646649 0  -1.274847982627361 1.541026482962232 0  -1.369094215094766 1.457937251802713 0  -1.457937257854835 1.369094208649911 0  -1.541026488074299 1.274847976447934 0  -1.618033990799842 1.175570501763435 0  -1.688655852750899 1.071653587205369 0  -1.752613361523153 0.9635073455924 0  -1.80965410608515 0.8515585806796591 0  -1.859552972631078 0.7362491032109458 0  -1.902113033195508 0.6180339868872777 0  -1.937166322641164 0.4973797728345091 0  -1.964574501674144 0.3747626280351212 0  -1.984229402724637 0.2506664663712131 0  -1.996053456879722 0.1255810386902028 0  -1.996053456837716 -0.1255810393578731 0  -1.984229402555223 -0.2506664677122601 0  -1.964574501275595 -0.3747626301243862 0  -1.937166321927573 -0.4973797756137629 0  -1.902113032058523 -0.6180339903865582 0  -1.859552970992176 -0.7362491073503388 0  -1.809654103857358 -0.8515585854139588 0  -1.752613358719046 -0.9635073506930532 0  -1.68865584926965 -1.071653592690939 0  -1.618033986646649 -1.175570507479816 0  -1.541026482962232 -1.274847982627361 0  -1.457937251802713 -1.369094215094766 0  -1.369094208649911 -1.457937257854835 0  -1.274847976447934 -1.541026488074299 0  -1.175570501763435 -1.618033990799842 0  -1.071653587205369 -1.688655852750899 0  -0.9635073455924 -1.752613361523153 0  -0.8515585806796591 -1.80965410608515 0  -0.7362491032109458 -1.859552972631078 0  -0.6180339868872777 -1.902113033195508 0  -0.4973797728345091 -1.937166322641164 0  -0.3747626280351212 -1.964574501674144 0  -0.2506664663712131 -1.984229402724637 0  -0.1255810386902028 -1.996053456879722 0  0.1255810393578731 -1.996053456837716 0  0.2506664677122601 -1.984229402555223 0  0.3747626301243862 -1.964574501275595 0  0.4973797756137629 -1.937166321927573 0  0.6180339903865582 -1.902113032058523 0  0.7362491073503388 -1.859552970992176 0  0.8515585854139588 -1.809654103857358 0  0.9635073506930532 -1.752613358719046 0  1.071653592690939 -1.68865584926965 0  1.175570507479816 -1.618033986646649 0  1.274847982627361 -1.541026482962232 0  1.369094215094766 -1.457937251802713 0  1.457937257854835 -1.369094208649911 0  1.541026488074299 -1.274847976447934 0  1.618033990799842 -1.175570501763435 0  1.688655852750899 -1.071653587205369 0  1.752613361523153 -0.9635073455924 0  1.80965410608515 -0.8515585806796591 0  1.859552972631078 -0.7362491032109458 0  1.902113033195508 -0.6180339868872777 0  1.937166322641164 -0.4973797728345091 0  1.964574501674144 -0.3747626280351212 0  1.984229402724637 -0.2506664663712131 0  1.996053456879722 -0.1255810386902028 0  0 1.875000000000347 0  0 1.750000000000694 0  0 1.625000000001042 0  0 1.500000000001389 0  0 1.375000000001736 0  0 1.250000000002083 0  0 1.125000000002431 0  0 1.000000000002778 0  0 0.8750000000031248 0  0 0.7500000000034714 0  0 0.6250000000038181 0  0 0.5000000000041651 0  0 0.3750000000045119 0  0 0.2500000000048588 0  0 0.1250000000052054 0  0 5.509148692794952e-12 0  0 -0.1249999999947944 0  0 -0.2499999999951412 0  0 -0.3749999999954885 0  0 -0.4999999999958358 0  0 -0.6249999999961826 0  0 -0.7499999999965299 0  0 -0.8749999999968767 0  0 -0.9999999999972236 0  0 -1.124999999997571 0  0 -1.249999999997918 0  0 -1.374999999998265 0  0 -1.499999999998612 0  0 -1.624999999998959 0  0 -1.749999999999306 0  0 -1.874999999999653 0  0.1082566336411304 -0.06249721138958328 0  1.769978925506156 0.6331774562186441 0  1.903135250199003 -0.0421944281877976 0  1.792767445305666 -0.6282195673649206 0  0.1078956266195906 0.4379732200456621 0  0.1081271557368096 -0.5626689135955911 0  1.497668507878613 1.144813795188484 0  1.495381822911744 -1.145186948587215 0  0.1077698321064012 0.9381801610794744 0  1.157591104880423 -1.496075542580389 0  1.15761904203644 1.496061189440118 0  0.107575378454425 -0.9379662415906492 0  0.1074881112432003 1.313364166073589 0  0.1073778204410697 -1.313431641428223 0  0.8581342293190556 1.6841832595155 0  0.8581342337129338 -1.684183256634205 0  1.851368580255463 0.2906826398251708 0  0.5249232492507638 1.815716715781448 0  0.5247778178913532 -1.815859379803398 0  0.1082353668846179 -0.3125509518049559 0  0.1080661273743536 0.1877645712619083 0  0.1078389931990292 0.6880769333414208 0  0.1073280526202888 1.563564970749537 0  0.107160679408544 -1.563615704201531 0  1.331581140402051 1.343190159103474 0  1.626802386652038 -0.9547108573666147 0  1.331552991861951 -1.343226601516206 0  1.631290071630766 0.9577989114228483 0  1.84669162712044 -0.4306457728829043 0  0.2975456488863658 1.873063487819802 0  0.2974751810617229 -1.873107343544094 0  0.09992055001738553 1.810702223800652 0  0.09984374948150972 -1.810705277930003 0  0.1082634647023108 -0.1875124211170647 0  0.2165510801728112 -0.1250032029974569 0  0.2165375172674545 4.221557482128871e-05 0  0.3248562165324149 -0.06247441291907704 0  0.3248585342277372 -0.1875624957204239 0  0.4332059573819909 -0.1250129595067874 0  0.4331985536034745 -0.250149813714412 0  0.5415852610461236 -0.1875723568446455 0  0.5415782023182074 -0.06241747692835881 0  0.5415829075105126 -0.3127317546530641 0  0.6499951624913161 -0.1249882924353291 0  0.6499156431939851 0.0003411059576302356 0  0.7584280238324674 -0.0623683986668593 0  0.7583381724307633 0.06301562139675367 0  0.8668942700507976 0.0002683876425051863 0  0.866904510818723 -0.1250308766382796 0  0.8668767636421114 0.1255591576030338 0  0.9754116371444833 0.0628928043742497 0  0.9754021224577029 0.1881893631214195 0  0.8668629130281992 0.2508426644318986 0  0.9753569972839978 0.3135148713980606 0  0.866839831793855 0.3761708347018111 0  0.9753431037724689 0.4388429871445935 0  0.866814648621348 0.5015010374276645 0  1.08393778919224 0.1255687039628436 0  0.9753369371520746 0.5641756407549315 0  0.8667849648470651 0.6268301269324548 0  0.9753189275771859 0.6895148186252987 0  0.8667545615587615 0.7521740478557806 0  1.08385809393457 0.5015670232038342 0  0.758249404512794 0.5641705835239291 0  0.975302017944805 0.814871697805804 0  0.8667237648340388 0.8775175004498103 0  0.7581711938478721 0.8148596678356821 0  0.758152425351844 0.9401730681893621 0  0.8666825215745161 1.002861206150922 0  0.7581094324766745 1.065502470213594 0  0.758328044826707 0.3134677110852433 0  1.083954067831041 0.0001938695472883667 0  1.19252231816974 0.06290459522933686 0  1.19252567041104 -0.06251801314282313 0  1.301128126712873 0.0001827802610413903 0  1.301130552695204 -0.1252317881558162 0  1.301115330419242 0.1256342297122375 0  1.192511328347185 -0.1879356955324901 0  1.301122730134966 -0.2506554158895156 0  1.192479750429495 -0.3133640044251623 0  1.301109212144929 -0.376083371131565 0  1.192456591795897 -0.4387979527390329 0  1.301099955648029 -0.5015268693521127 0  1.192451042906288 -0.5642305205519469 0  1.083808608024566 -0.5015171362738394 0  1.083797611734733 -0.6269374026706226 0  1.192424372222687 -0.6896688318832552 0  1.083773414310783 -0.7523626977114914 0  0.9751635753458996 -0.6896283291284873 0  0.9751313738428584 -0.8150333902436167 0  0.8665379607358412 -0.7522956549768351 0  0.866507412012517 -0.8776920507112558 0  0.7579364824946339 -0.8149685185678733 0  0.7579105028675454 -0.9403375519043209 0  0.8664591563359163 -1.003063911606668 0  0.7578566498173244 -1.06570761780405 0  0.3248448173131987 0.06260863083124135 0  1.083893067089233 0.7522053392182682 0  0.6495916017573917 1.002804704420728 0  0.6495390695087485 1.128124720958234 0  0.6493286086035562 -1.002983876189425 0  0.6492444751237343 -1.12835303640501 0  1.083873907579097 0.8776032265043791 0  1.083719561562728 -0.8777731949711265 0  0.7580709241722678 1.190851653093661 0  0.649469894045057 1.253474513631031 0  0.7578032938091362 -1.191084253213334 0  0.6491623390451466 -1.253731681537431 0  1.409747204836514 -0.1879373177366649 0  1.40975761403562 0.06289241900658486 0  1.409749567615142 0.1883618295687293 0  1.192505181992844 0.8149134925192071 0  0.54105335710638 1.065408377512265 0  0.5411037179786489 0.9401445256473224 0  0.5407475291886857 -1.065617554551859 0  0.5408198401311859 -0.9403086694595302 0  0.8665959699553137 -0.6267497636797308 0  1.409760301898612 -0.4388112271479134 0  1.409753025387469 -0.5642873312765931 0  1.518426999819115 0.1256101644706334 0  1.518414924029519 0.2511054618769016 0  1.409727051028622 0.3138377764034209 0  0.4331763451889839 -0.3753049428747806 0  0.5415217642104331 -0.4379040554119423 0  0.4331118399901733 -0.5004930698386724 0  0.649839
[...]
<PointData  Vectors="f_209-0"> 
<DataArray  type="Float64"  Name="f_209-0"  NumberOfComponents="3" format="ascii">0.0000000000000000e+00 0.0000000000000000e+00 0.0000000000000000e+00  0.0000000000000000e+00 -1.8779622805983935e-02 0.0000000000000000e+00  -1.5588054149464656e-02 0.0000000000000000e+00 0.0000000000000000e+00  0.0000000000000000e+00 -8.8895906337941658e-03 0.0000000000000000e+00  -4.0031929552418197e-03 0.0000000000000000e+00 0.0000000000000000e+00  -6.0756979258482675e-03 0.0000000000000000e+00 0.0000000000000000e+00  -7.5864884095144516e-03 0.0000000000000000e+00 0.0000000000000000e+00  -8.8002556866309464e-03 0.0000000000000000e+00 0.0000000000000000e+00  -9.8259721799710317e-03 0.0000000000000000e+00 0.0000000000000000e+00  -1.0717975052721570e-02 0.0000000000000000e+00 0.0000000000000000e+00  -1.1483604497486009e-02 0.0000000000000000e+00 0.0000000000000000e+00  -1.2152115068956252e-02 0.0000000000000000e+00 0.0000000000000000e+00  -1.2741641331739113e-02 0.0000000000000000e+00 0.0000000000000000e+00  -1.3247344046501941e-02 0.0000000000000000e+00 0.0000000000000000e+00  -1.3688998130026031e-02 0.0000000000000000e+00 0.0000000000000000e+00  -1.4062185772470495e-02 0.0000000000000000e+00 0.0000000000000000e+00  -1.4377027307634524e-02 0.0000000000000000e+00 0.0000000000000000e+00  -1.4633236818088325e-02 0.0000000000000000e+00 0.0000000000000000e+00  -1.4839337977359706e-02 0.0000000000000000e+00 0.0000000000000000e+00  -1.5003805848444096e-02 0.0000000000000000e+00 0.0000000000000000e+00  -1.5109321420036126e-02 0.0000000000000000e+00 0.0000000000000000e+00  -1.5185074165714546e-02 0.0000000000000000e+00 0.0000000000000000e+00  -1.5232290509184468e-02 0.0000000000000000e+00 0.0000000000000000e+00  -1.5251165469896310e-02 0.0000000000000000e+00 0.0000000000000000e+00  -1.5252323973877380e-02 0.0000000000000000e+00 0.0000000000000000e+00  -1.5250992774665999e-02 0.0000000000000000e+00 0.0000000000000000e+00  -1.5262365487590190e-02 0.0000000000000000e+00 0.0000000000000000e+00  -1.5330534182695019e-02 0.0000000000000000e+00 0.0000000000000000e+00  -1.6188783382899072e-02 -5.1157767001340807e-03 0.0000000000000000e+00  -1.5802832679876536e-02 -7.7822495632593625e-03 0.0000000000000000e+00  -1.5208873442472414e-02 -9.8202213880636078e-03 0.0000000000000000e+00  -1.4524137561069884e-02 -1.1454792436461227e-02 0.0000000000000000e+00  -1.3809153429161183e-02 -1.2821154422741060e-02 0.0000000000000000e+00  -1.3072853369407203e-02 -1.4004100578439708e-02 0.0000000000000000e+00  -1.2316719514533274e-02 -1.5030016249064141e-02 0.0000000000000000e+00  -1.1525303575754518e-02 -1.5921322591258235e-02 0.0000000000000000e+00  -1.0702829977635381e-02 -1.6705243685935466e-02 0.0000000000000000e+00  -9.8995555166495851e-03 -1.7354016287787578e-02 0.0000000000000000e+00  -9.0883039449448089e-03 -1.7939211070521693e-02 0.0000000000000000e+00  -8.2787965620632949e-03 -1.8417679087570565e-02 0.0000000000000000e+00  -7.4821560589682585e-03 -1.8814327379484123e-02 0.0000000000000000e+00  -6.6938814028789564e-03 -1.9133051523313686e-02 0.0000000000000000e+00  -5.9316608176392263e-03 -1.9375305827180500e-02 0.0000000000000000e+00  -5.1751643638192103e-03 -1.9542143685527012e-02 0.0000000000000000e+00  -4.4590572476990087e-03 -1.9651504260013331e-02 0.0000000000000000e+00  -3.7677331354747886e-03 -1.9686697867682214e-02 0.0000000000000000e+00  -3.1157681730864073e-03 -1.9683687645507847e-02 0.0000000000000000e+00  -2.5155838413190986e-03 -1.9617591735916484e-02 0.0000000000000000e+00  -1.9547510114652973e-03 -1.9502191626565059e-02 0.0000000000000000e+00  -1.4417399234845319e-03 -1.9362415337284868e-02 0.0000000000000000e+00  -9.8956395228951043e-04 -1.9204080622639265e-02 0.0000000000000000e+00  -6.0467228519303835e-04 -1.9044722808787259e-02 0.0000000000000000e+00  0.0000000000000000e+00 -1.8422702474922840e-02 0.0000000000000000e+00  0.0000000000000000e+00 -1.8150452188171323e-02 0.0000000000000000e+00  0.0000000000000000e+00 -1.7900687286119626e-02 0.0000000000000000e+00  0.0000000000000000e+00 -1.7656667388003006e-02 0.0000000000000000e+00  0.0000000000000000e+00 -1.7415835015848733e-02 0.0000000000000000e+00  0.0000000000000000e+00 -1.7163439885092176e-02 0.0000000000000000e+00  0.0000000000000000e+00 -1.6894354753399080e-02 0.0000000000000000e+00  0.0000000000000000e+00 -1.6614162750569334e-02 0.0000000000000000e+00  0.0000000000000000e+00 -1.6313011157810843e-02 0.0000000000000000e+00  0.0000000000000000e+00 -1.5995253368027842e-02 0.0000000000000000e+00  0.0000000000000000e+00 -1.5656632434162508e-02 0.0000000000000000e+00  0.0000000000000000e+00 -1.5298061033997674e-02 0.0000000000000000e+00  0.0000000000000000e+00 -1.4918578634163179e-02 0.0000000000000000e+00  0.0000000000000000e+00 -1.4519361495988464e-02 0.0000000000000000e+00  0.0000000000000000e+00 -1.4097340823386951e-02 0.0000000000000000e+00  0.0000000000000000e+00 -1.3659811113080672e-02 0.0000000000000000e+00  0.0000000000000000e+00 -1.3200214289529569e-02 0.0000000000000000e+00  0.0000000000000000e+00 -1.2722728775447072e-02 0.0000000000000000e+00  0.0000000000000000e+00 -1.2225847522457825e-02 0.0000000000000000e+00  0.0000000000000000e+00 -1.1711660757631491e-02 0.0000000000000000e+00  0.0000000000000000e+00 -1.1180777563100720e-02 0.0000000000000000e+00  0.0000000000000000e+00 -1.0633008504816301e-02 0.0000000000000000e+00  0.0000000000000000e+00 -1.0068397277569106e-02 0.0000000000000000e+00  0.0000000000000000e+00 -9.4884875838880545e-03 0.0000000000000000e+00  0.0000000000000000e+00 -8.5127584059766781e-03 0.0000000000000000e+00  0.0000000000000000e+00 -8.1220980369340300e-03 0.0000000000000000e+00  0.0000000000000000e+00 -7.7235263192755961e-03 0.0000000000000000e+00  0.0000000000000000e+00 -7.3188319473851153e-03 0.0000000000000000e+00  0.0000000000000000e+00 -6.9114923230795544e-03 0.0000000000000000e+00  0.0000000000000000e+00 -6.5032234067754734e-03 0.0000000000000000e+00  0.0000000000000000e+00 -6.0964801565881127e-03 0.0000000000000000e+00  0.0000000000000000e+00 -5.6947300443489432e-03 0.0000000000000000e+00  0.0000000000000000e+00 -5.2965718429690183e-03 0.0000000000000000e+00  0.0000000000000000e+00 -4.9091036968171888e-03 0.0000000000000000e+00  0.0000000000000000e+00 -4.5269653915591202e-03 0.0000000000000000e+00  0.0000000000000000e+00 -4.1568550784469539e-03 0.0000000000000000e+00  0.0000000000000000e+00 -3.7974811534993345e-03 0.0000000000000000e+00  0.0000000000000000e+00 -3.4510291783164965e-03 0.0000000000000000e+00  0.0000000000000000e+00 -3.1178724021623007e-03 0.0000000000000000e+00  0.0000000000000000e+00 -2.7996709236146663e-03 0.0000000000000000e+00  0.0000000000000000e+00 -2.4948673511709491e-03 0.0000000000000000e+00  0.0000000000000000e+00 -2.2055821578732078e-03 0.0000000000000000e+00  0.0000000000000000e+00 -1.9292675788823938e-03 0.0000000000000000e+00  0.0000000000000000e+00 -1.6642135287594801e-03 0.0000000000000000e+00  0.0000000000000000e+00 -1.3994954715675504e-03 0.0000000000000000e+00  0.0000000000000000e+00 -1.1226910123719211e-03 0.0000000000000000e+00  0.0000000000000000e+00 -8.1993079536540924e-04 0.0000000000000000e+00  0.0000000000000000e+00 -4.9641936369202821e-04 0.0000000000000000e+00  -1.4106356337166512e-02 -1.9992560262204829e-03 0.0000000000000000e+00  -1.3076487735639708e-02 -3.2747280487922812e-03 0.0000000000000000e+00  -1.2177797403245030e-02 -4.2293837485464303e-03 0.0000000000000000e+00  -1.1338741143216197e-02 -5.0039520791408778e-03 0.0000000000000000e+00  -1.0538862364562482e-02 -5.6572760233051540e-03 0.0000000000000000e+00  -9.7633536801603870e-03 -6.2192402408805837e-03 0.0000000000000000e+00  -9.0060210888063368e-03 -6.7088136226958472e-03 0.0000000000000000e+00  -8.2640016022020122e-03 -7.1381311423519139e-03 0.0000000000000000e+00  -7.5370471042794963e-03 -7.5151353472636484e-03 0.0000000000000000e+00  -6.8264494357118434e-03 -7.8449748114396527e-03 0.0000000000000000e+00  -6.1345673256192560e-03 -8.1310938987619770e-03 0.0000000000000000e+00  -5.4648073506082164e-03 -8.3760541316547799e-03 0.0000000000000000e+00  -4.8209876383389413e-03 -8.5818771339020352e-03 0.0000000000000000e+00  -4.2073032037928445e-03 -8.7506175665667211e-03 0.0000000000000000e+00  -3.6279755812415274e-03 -8.8845721227935881e-03 0.0000000000000000e+00  -3.0868673906224251e-03 -8.9863519161445318e-03 0.0000000000000000e+00  -2.5873787870039824e-03 -9.0590219473286136e-03 0.0000000000000000e+00  -2.1321727768346343e-03 -9.1060339123167130e-03 0.0000000000000000e+00  -1.7229802182636442e-03 -9.1311026326652764e-03 0.0000000000000000e+00  -1.3605617015311692e-03 -9.1380659442488882e-03 0.0000000000000000e+00  -1.0447122782748955e-03 -9.1307710676428976e-03 0.0000000000000000e+00  -7.7435208202095466e-04 -9.1128456111801738e-03 0.0000000000000000e+00  -5.4764896078716085e-04 -9.0876464970208529e-03 0.0000000000000000e+00  -3.6207306044745246e-04 -9.0580969860189833e-03 0.0000000000000000e+00  -2.1482162065034654e-04 -9.0267339528698545e-03 0.0000000000000000e+00  -1.0282190477057706e-04 -8.9956419156612573e-03 0.0000000000000000e+00  -2.2857081443555867e-05 -8.9665090100334906e-03 0.0000000000000000e+00  2.8199669332680978e-05 -8.9406777193230206e-03 0.0000000000000000e+00  5.3278675048059952e-05 -8.9191984599826645e-03 0.0000000000000000e+00  5.5323306545527920e-05 -8.9030846826412859e-03 0.0000000000000000e+00  3.6573038524400389e-05 -8.8927159772468622e-03 0.0000000000000000e+00  -2.9295219263113887e-03 -8.4981733464872828e-03 0.0000000000000000e+00  -9.8231086763388570e-03 -7.5086815953303600e-04 0.0000000000000000e+00  -7.1953589023791180e-04 -1.0033639506670453e-03 0.0000000000000000e+00  -9.2446941834729783e-05 -1.9781826284397531e-03 0.0000000000000000e+00  -5.3408551924266391e-03 -7.8868236882242149e-03 0.0000000000000000e+00  -1.2244113540284156e-03 -8.6671931507928089e-03 0.0000000000000000e+00  -1.2943016703238944e-02 -5.5664554563894509e-04 0.0000000000000000e+00  -1.7191372645489754e-05 -3.4647893762883367e-03 0.0000000000000000e+00  -8.2039057328114097e-03 -6.6391549324962837e-03 0.0000000000000000e+00  1.4516011954555023e-05 -4.8773371506047082e-03 0.0000000000000000e+00  -1.4284093997002945e-02 -5.0268977626899186e-04 0.0000000000000000e+00  -4.5232753420653516e-04 -8.6488153022884900e-03 0.0000000000000000e+00  -1.0521032683221151e-02 -5.1430027611783120e-03 0.0000000000000000e+00  -5.4044927108682684e-05 -8.5978215329999257e-03 0.0000000000000000e+00  -1.4709697283642006e-02 -5.2702510609859907e-04 0.0000000000000000e+00  2.6162658923617358e-05 -6.0081481267943507e-03 0.0000000000000000e+00  -6.4793211626766010e-03 -1.1522158574894447e-03 0.0000000000000000e+00  -1.4837468673140492e-02 -5.8505400375149521e-04 0.0000000000000000e+00  3.2680118642416020e-05 -7.1914538039070455e-03 0.0000000000000000e+00  -1.9791276305547089e-03 -8.6232086176536091e-03 0.0000000000000000e+00  -4.0605920148159705e-03 -8.2617318558837610e-03 0.0000000000000000e+00  -6.7330765534420120e-03 -7.3527588878128380e-03 0.0000000000000000e+00  -1.2169480028754903e-02 -3.7153817709464033e-03 0.0000000000000000e+00  4.7909940951367365e-05 -8.5725488206993446e-03 0.0000000000000000e+00  -1.3779903422085021e-02 -5.0855254717388455e-04 0.0000000000000000e+00  -4.1470300561938877e-05 -2.8551933002036807e-03 0.0000000000000000e+00  2.3594742703556205e-06 -4.1771060587530951e-03 0.0000000000000000e+00  -1.1991095916710886e-02 -5.5939230986797657e-04 0.0000000000000000e+00  -1.6192565435206726e-04 -1.5649331045753708e-03 0.0000000000000000e+00  -1.4870059698022572e-02 -6.4850291822633581e-04 0.0000000000000000e+00  3.2821586466473078e-05 -7.9557030624006451e-03 0.0000000000000000e+00  -1.4000353817078082e-02 -1.7789959544459678e-03 0.0000000000000000e+00  4.9643576218617457e-05 -8.5864726174143795e-03 0.0000000000000000e+00  -2.4304874177900073e-03 -8.5727754007046755e-03 0.0000000000000000e+00  -2.7591593308334710e-03 -8.0396129677320523e-03 0.0000000000000000e+00  -3.3048570551188544e-03 -7.9401706903745282e-03 0.0000000000000000e+00  -3.1178759852636918e-03 -7.5115362223628548e-03 0.0000000000000000e+00  -2.5731167660638485e-03 -7.6038315738899374e-03 0.0000000000000000e+00  -2.9102746395645936e-03 -7.1022460764076419e-03 0.0000000000000000e+00  -2.3698103092907627e-03 -7.1839927621014836e-03 0.0000000000000000e+00  -2.6801926102388261e-03 -6.7052360024420065e-03 0.0000000000000000e+00  -3.2745475883653868e-03 -6.6113630762450045e-03 0.0000000000000000e+00  -2.1486632525582615e-03 -6.7736849622514056e-03 0.0000000000000000e+00  -3.0136666233776172e-03 -6.2383050804843479e-03 0.0000000000000000e+00  -3.6676610581788992e-03 -6.1341707668928231e-03 0.0000000000000000e+00  -3.3716428226622823e-03 -5.7856449034991873e-03 0.0000000000000000e+00  -4.0902715609773413e-03 -5.6720120754821289e-03 0.0000000000000000e+00  -3.7564298756047323e-03 -5.3483913776546221e-03 0.0000000000000000e+00  -3.0389534139742885e-03 -5.4330004389726997e-03 0.0000000000000000e+00  -4.5450034740407638e-03 -5.2245531808218348e-03 0.0000000000000000e+00  -4.1719535714197873e-03 -4.9257947460353280e-03 0.0000000000000000e+00  -5.0376879952650161e-03 -4.7891700138297574e-03 0.0000000000000000e+00  -5.3902015922340308e-03 -5.0550048909802185e-03 0.0000000000000000e+00  -5.9539745378221270e-03 -4.6000595426171449e-03 0.0000000000000000e+00  -6.2755586265965972e-03 -4.8368599143093754e-03 0.0000000000000000e+00  -6.8985717488259605e-03 -4.3581467867407553e-03 0.0000000000000000e+00  -7.1835347944959032e-03 -4.5709311448016796e-03 0.0000000000000000e+00  -4.6251978292180893e-03 -4.5143373942776186e-03 0.0000000000000000e+00  -7.8507239516656599e-03 -4.0679401937950728e-03 0.0000000000000000e+00  -8.0983587518733621e-03 -4.2609217443990476e-03 0.0000000000000000e+00  -8.7932853551179607e-03 -3.7365815241120416e-03 0.0000000000000000e+00  -9.0071019663286629e-03 -3.9119813256947508e-03 0.0000000000000000e+00  -7.5596581273815518e-03 -3.8737122997176479e-03 0.0000000000000000e+00  -7.4245044179857278e-03 -4.7886983370375351e-03 0.0000000000000000e+00  -9.7138146379966428e-03 -3.3714760557187954e-03 0.0000000000000000e+00  -9.8996919447032709e-03 -3.5295441133718543e-03 0.0000000000000000e+00  -9.1895213360200217e-03 -4.0897700637584754e-03 0.0000000000000000e+00  -1.0059695258710545e-02 -3.6864527356368702e-03 0.0000000000000000e+00  -1.0768505106327974e-02 -3.1182837211257042e-03 0.0000000000000000e+00  -1.0912496862025516e-02 -3.2517147283835802e-03 0.0000000000000000e+00  -5.6906430468339391e-03 -5.3205247847834015e-03 0.0000000000000000e+00  -3.7418125507009425e-03 -4.6122926889019681e-03 0.0000000000000000e+00  -4.1425658329740638e-03 -4.2199913993220288e-03 0.0000000000000000e+00  -3.2498621480747387e-03 -4.2723683015086673e-03 0.0000000000000000e+00  -3.5794557930642428e-03 -3.8924177300396754e-03 0.0000000000000000e+00  -2.6949560095432708e-03 -3.8919816731636594e-03 0.0000000000000000e+00  -4.5928000002332416e-03 -3.8294458396597175e-03 0.0000000000000000e+00  -2.4761089748154838e-03 -4.2810965559278262e-03 0.0000000000000000e+00  -1.9671196371556124e-03 -3.8600989368490712e-03 0.0000000000000000e+00  -1.8350542486653670e-03 -4.2696833001530533e-03 0.0000000000000000e+00  -1.3992517318710748e-03 -3.8289824780824381e-03 0.0000000000000000e+00  -1.3246475329945285e-03 -4.2592910830574716e-03 0.0000000000000000e+00  -9.7213201574311971e-04 -3.8188909609174161e-03 0.0000000000000000e+00  -9.2978936811030470e-04 -4.2633502463331838e-03 0.0000000000000000e+00  -1.2311059184838876e-03 -4.6925067719389901e-03 0.0000000000000000e+00  -8.6734990191539318e-04 -4.7072457909197469e-03 0.0000000000000000e+00  -6.2983418769658648e-04 -4.2868335818687158e-03 0.0000000000000000e+00  -5.8632979771571273e-04 -4.7356029844903610e-03 0.0000000000000000e+00  -7.9111739664830213e-04 -5.1519392432335049e-03 0.0000000000000000e+00  -5.3056410181116093e-04 -5.1833003748584863e-03 0.0000000000000000e+00  -7.0616738162323698e-04 -5.5977406371882799e-03 0.0000000000000000e+00  -4.6684329121695814e-04 -5.6299529311296731e-03 0.0000000000000000e+00  -6.1658857808017005e-04 -6.0439429268561197e-03 0.0000000000000000e+00  -3.9892875317327424e-04 -6.0747742259999711e-03 0.0000000000000000e+00  -2.8418605346936871e-04 -5.6692516989701215e-03 0.0000000000000000e+00  -2.3312205393317834e-04 -6.1104710063040321e-03 0.0000000000000000e+00  -3.7132683881474899e-03 -7.3896586103213329e-03 0.0000000000000000e+00  -9.4991959988667430e-03 -3.2067453349379459e-03 0.0000000000000000e+00  -1.0195385070442341e-02 -3.8485522745256794e-03 0.0000000000000000e+00  -1.1036484464336879e-02 -3.3852737537851613e-03 0.0000000000000000e+00  -3.3000274456865947e-04 -6.5164599960831227e-03 0.0000000000000000e+00  -1.8162841035053472e-04 -6.5470999392599951e-03 0.0000000000000000e+00  -1.0415856529600134e-02 -2.8288618061428766e-03 0.0000000000000000e+00  -3.7368632492217855e-04 -4.7779718294774908e-03 0.0000000000000000e+00  -1.1741617173455687e-02 -2.7882813323484856e-03 0.0000000000000000e+00  -1.1860796800232507e-02 -2.8883395653246471e-03 0.0000000000000000e+00  -1.1222614545196167e-04 -6.1511765559882159e-03 0.0000000000000000e+00  -7.4920328693906993e-05 -6.5813467075375243e-03 0.0000000000000000e+00  -2.0864075746211685e-03 -3.4564109004236506e-03 0.0000000000000000e+00  -3.9559425787090950e-03 -3.5145621160198462e-03 0.0000000000000000e+00  -5.1149595648766737e-03 -3.4216339221161481e-03 0.0000000000000000e+00  -1.0202349083156703e-02 -2.6626424127385835e-03 0.0000000000000000e+00  -1.0307778471446963e-02 -4.0235895647800562e-03 0.0000000000000000e+00  -9.4702982563984444e-03 -4.4791964189601196e-03 0.0000000000000000e+00  -2.6283731628324632e-04 -6.9532161548869825e-03 0.0000000000000000e+00  -4.3738673980681179e-04 -6.9313146980689655e-03 0.0000000000000000e+00  -1.0114474015217255e-03 -5.5714228669461394e-03 0.0000000000000000e+00  -9.8636867112156116e-04 -3.3708021853076750e-03 0.0000000000000000e+00  -6.5817480564784746e-04 -3.3812376988316536e-03 0.0000000000000000e+00  -4.4138804286771947e-03 -3.1175892003940924e-03 0.0000000000000000e+00  -5.7424001362123608e-03 -2.9582164110436735e-03 0.0000000000000000e+00  -6.3285663972790741e-03 -3.2231908836771414e-03 0.0000000000000000e+00  -1.8886406981497410e-03 -7.2430691533311945e-03 0.0000000000000000e+00  -1.6822473182284698e-03 -6.8229327886407867e-03 0.0000000000000000e+00  -1.4679281838481846e-03 -7.2848338328133540e-03 0.0000000000000000e+00  -1.9098357689240196e-03 -6.3678397658466597e-03 0.0000000000000000e+00  -1.1098298583178488e-02 -2.2765186804109055e-03 0.0000000000000000e+00  -1.2539428518382197e-02 -2.2990916514661879e-03 0.0000000000000000e+00  -1.2660717056550079e-02 -2.3603637233680034e-03 0.0000000000000000e+00  -1.1964716694013463e-02 -2.9883348880617349e-03 0.0000000000000000e+00  -1.2408112667581798e-02 -2.2226839112812063e-03 0.0000000000000000e+00  -1.2772343458474531e-02 -2.4119942326043826e-03 0.0000000000000000e+00  -3.0007295449898886e-05 -6.1966686314380076e-03 0.0000000000000000e+00  -4.4199541513840848e-06 -6.6191785021788713e-03 0.0000000000000000e+00  -3.9971523772236094e-05 -7.0040402884329455e-03 0.0000000000000000e+00  -5.6829648338964750e-05 -5.7677081498025713e-03 0.0000000000000000e+00  1.8200547436465132e-05 -7.0336707683278793e-03 0.0000000000000000e+00  -7.0547924055857861e-03 -2.6839476016050413e-03 0.0000000000000000e+00  -7.5210096406892173e-03 -2.9419574601093224e-03 0.0000000000000000e+00  -1.0886069559944884e-02 -2.0974421582279075e-03 0.0000000000000000e+00  -1.2810134109668898e-03 -6.8583623394568582e-03 0.0000000000000000e+00  -1.1071239581905974e-03 -7.3138925230804052e-03 0.0000000000000000e+00  -9.5720906459143829e-03 -4.7083333628524619e-03 0.0000000000000000e+00  -8.7511902927015980e-03 -5.1470115136454326e-03 0.0000000000000000e+00  -1.2052258924236014e-02 -3.0968930483423036e-03 0.0000000000000000e+00  -1.2874241711240048e-02 -2.4586422749752947e-03 0.0000000000000000e+00  -3.5342507781818011e-04 -7.3681