<?xml version="1.0"?>
<VTKFile type="UnstructuredGrid"  version="0.1"  >
<UnstructuredGrid>
<Piece  NumberOfPoints="1000" NumberOfCells="1898">
<Points>
<DataArray  type="Float64"  NumberOfComponents="3"  format="ascii">2 0 0  -2 0 0  0 2 0  0 -2 0  1.996053456837716 0.1255810393578731 0  1.984229402555223 0.2506664677122601 0  1.964574501275595 0.3747626301243862 0  1.937166321927573 0.4973797756137629 0  1.902113032058523 0.6180339903865582 0  1.859552970992176 0.7362491073503388 0  1.809654103857358 0.8515585854139588 0  1.752613358719046 0.9635073506930532 0  1.68865584926965 1.071653592690939 0  1.618033986646649 1.175570507479816 0  1.541026482962232 1.274847982627361 0  1.457937251802713 1.369094215094766 0  1.369094208649911 1.457937257854835 0  1.274847976447934 1.541026488074299 0  1.175570501763435 1.618033990799842 0  1.071653587205369 1.688655852750899 0  0.9635073455924 1.752613361523153 0  0.8515585806796591 1.80965410608515 0  0.7362491032109458 1.859552972631078 0  0.6180339868872777 1.902113033195508 0  0.4973797728345091 1.937166322641164 0  0.3747626280351212 1.964574501674144 0  0.2506664663712131 1.984229402724637 0  0.1255810386902028 1.996053456879722 0  -0.1255810393578731 1.996053456837716 0  -0.2506664677122601 1.984229402555223 0  -0.3747626301243862 1.964574501275595 0  -0.4973797756137629 1.937166321927573 0  -0.6180339903865582 1.902113032058523 0  -0.7362491073503388 1.859552970992176 0  -0.8515585854139588 1.809654103857358 0  -0.9635073506930532 1.752613358719046 0  -1.071653592690939 1.68865584926965 0  -1.175570507479816 1.618033986646649 0  -1.274847982627361 1.541026482962232 0  -1.369094215094766 1.457937251802713 0  -1.457937257854835 1.369094208649911 0  -1.541026488074299 1.274847976447934 0  -1.618033990799842 1.175570501763435 0  -1.688655852750899 1.071653587205369 0  -1.752613361523153 0.9635073455924 0  -1.80965410608515 0.8515585806796591 0  -1.859552972631078 0.7362491032109458 0  -1.902113033195508 0.6180339868872777 0  -1.937166322641164 0.4973797728345091 0  -1.964574501674144 0.3747626280351212 0  -1.984229402724637 0.2506664663712131 0  -1.996053456879722 0.1255810386902028 0  -1.996053456837716 -0.1255810393578731 0  -1.984229402555223 -0.2506664677122601 0  -1.964574501275595 -0.3747626301243862 0  -1.937166321927573 -0.4973797756137629 0  -1.902113032058523 -0.6180339903865582 0  -1.859552970992176 -0.7362491073503388 0  -1.809654103857358 -0.8515585854139588 0  -1.752613358719046 -0.9635073506930532 0  -1.68865584926965 -1.071653592690939 0  -1.618033986646649 -1.175570507479816 0  -1.541026482962232 -1.274847982627361 0  -1.457937251802713 -1.369094215094766 0  -1.369094208649911 -1.457937257854835 0  -1.274847976447934 -1.541026488074299 0  -1.175570501763435 -1.618033990799842 0  -1.071653587205369 -1.688655852750899 0  -0.9635073455924 -1.752613361523153 0  -0.8515585806796591 -1.80965410608515 0  -0.7362491032109458 -1.859552972631078 0  -0.6180339868872777 -1.902113033195508 0  -0.4973797728345091 -1.937166322641164 0  -0.3747626280351212 -1.964574501674144 0  -0.2506664663712131 -1.984229402724637 0  -0.1255810386902028 -1.996053456879722 0  0.1255810393578731 -1.996053456837716 0  0.2506664677122601 -1.984229402555223 0  0.3747626301243862 -1.964574501275595 0  0.4973797756137629 -1.937166321927573 0  0.6180339903865582 -1.902113032058523 0  0.7362491073503388 -1.859552970992176 0  0.8515585854139588 -1.809654103857358 0  0.9635073506930532 -1.752613358719046 0  1.071653592690939 -1.68865584926965 0  1.175570507479816 -1.618033986646649 0  1.274847982627361 -1.541026482962232 0  1.369094215094766 -1.457937251802713 0  1.457937257854835 -1.369094208649911 0  1.541026488074299 -1.274847976447934 0  1.618033990799842 -1.175570501763435 0  1.688655852750899 -1.071653587205369 0  1.752613361523153 -0.9635073455924 0  1.80965410608515 -0.8515585806796591 0  1.859552972631078 -0.7362491032109458 0  1.902113033195508 -0.6180339868872777 0  1.937166322641164 -0.4973797728345091 0  1.964574501674144 -0.3747626280351212 0  1.984229402724637 -0.2506664663712131 0  1.996053456879722 -0.1255810386902028 0  0 1.875000000000347 0  0 1.750000000000694 0  0 1.625000000001042 0  0 1.500000000001389 0  0 1.375000000001736 0  0 1.250000000002083 0  0 1.125000000002431 0  0 1.000000000002778 0  0 0.8750000000031248 0  0 0.7500000000034714 0  0 0.6250000000038181 0  0 0.5000000000041651 0  0 0.3750000000045119 0  0 0.2500000000048588 0  0 0.1250000000052054 0  0 5.509148692794952e-12 0  0 -0.1249999999947944 0  0 -0.2499999999951412 0  0 -0.3749999999954885 0  0 -0.4999999999958358 0  0 -0.6249999999961826 0  0 -0.7499999999965299 0  0 -0.8749999999968767 0  0 -0.9999999999972236 0  0 -1.124999999997571 0  0 -1.249999999997918 0  0 -1.374999999998265 0  0 -1.499999999998612 0  0 -1.624999999998959 0  0 -1.749999999999306 0  0 -1.874999999999653 0  0.1082566336411304 -0.06249721138958328 0  1.769978925506156 0.6331774562186441 0  1.903135250199003 -0.0421944281877976 0  1.792767445305666 -0.6282195673649206 0  0.1078956266195906 0.4379732200456621 0  0.1081271557368096 -0.5626689135955911 0  1.497668507878613 1.144813795188484 0  1.495381822911744 -1.145186948587215 0  0.1077698321064012 0.9381801610794744 0  1.157591104880423 -1.496075542580389 0  1.15761904203644 1.496061189440118 0  0.107575378454425 -0.9379662415906492 0  0.1074881112432003 1.313364166073589 0  0.1073778204410697 -1.313431641428223 0  0.8581342293190556 1.6841832595155 0  0.8581342337129338 -1.684183256634205 0  1.851368580255463 0.2906826398251708 0  0.5249232492507638 1.815716715781448 0  0.5247778178913532 -1.815859379803398 0  0.1082353668846179 -0.3125509518049559 0  0.1080661273743536 0.1877645712619083 0  0.1078389931990292 0.6880769333414208 0  0.1073280526202888 1.563564970749537 0  0.107160679408544 -1.563615704201531 0  1.331581140402051 1.343190159103474 0  1.626802386652038 -0.9547108573666147 0  1.331552991861951 -1.343226601516206 0  1.631290071630766 0.9577989114228483 0  1.84669162712044 -0.4306457728829043 0  0.2975456488863658 1.873063487819802 0  0.2974751810617229 -1.873107343544094 0  0.09992055001738553 1.810702223800652 0  0.09984374948150972 -1.810705277930003 0  0.1082634647023108 -0.1875124211170647 0  0.2165510801728112 -0.1250032029974569 0  0.2165375172674545 4.221557482128871e-05 0  0.3248562165324149 -0.06247441291907704 0  0.3248585342277372 -0.1875624957204239 0  0.4332059573819909 -0.1250129595067874 0  0.4331985536034745 -0.250149813714412 0  0.5415852610461236 -0.1875723568446455 0  0.5415782023182074 -0.06241747692835881 0  0.5415829075105126 -0.3127317546530641 0  0.6499951624913161 -0.1249882924353291 0  0.6499156431939851 0.0003411059576302356 0  0.7584280238324674 -0.0623683986668593 0  0.7583381724307633 0.06301562139675367 0  0.8668942700507976 0.0002683876425051863 0  0.866904510818723 -0.1250308766382796 0  0.8668767636421114 0.1255591576030338 0  0.9754116371444833 0.0628928043742497 0  0.9754021224577029 0.1881893631214195 0  0.8668629130281992 0.2508426644318986 0  0.9753569972839978 0.3135148713980606 0  0.866839831793855 0.3761708347018111 0  0.9753431037724689 0.4388429871445935 0  0.866814648621348 0.5015010374276645 0  1.08393778919224 0.1255687039628436 0  0.9753369371520746 0.5641756407549315 0  0.8667849648470651 0.6268301269324548 0  0.9753189275771859 0.6895148186252987 0  0.8667545615587615 0.7521740478557806 0  1.08385809393457 0.5015670232038342 0  0.758249404512794 0.5641705835239291 0  0.975302017944805 0.814871697805804 0  0.8667237648340388 0.8775175004498103 0  0.7581711938478721 0.8148596678356821 0  0.758152425351844 0.9401730681893621 0  0.8666825215745161 1.002861206150922 0  0.7581094324766745 1.065502470213594 0  0.758328044826707 0.3134677110852433 0  1.083954067831041 0.0001938695472883667 0  1.19252231816974 0.06290459522933686 0  1.19252567041104 -0.06251801314282313 0  1.301128126712873 0.0001827802610413903 0  1.301130552695204 -0.1252317881558162 0  1.301115330419242 0.1256342297122375 0  1.192511328347185 -0.1879356955324901 0  1.301122730134966 -0.2506554158895156 0  1.192479750429495 -0.3133640044251623 0  1.301109212144929 -0.376083371131565 0  1.192456591795897 -0.4387979527390329 0  1.301099955648029 -0.5015268693521127 0  1.192451042906288 -0.5642305205519469 0  1.083808608024566 -0.5015171362738394 0  1.083797611734733 -0.6269374026706226 0  1.192424372222687 -0.6896688318832552 0  1.083773414310783 -0.7523626977114914 0  0.9751635753458996 -0.6896283291284873 0  0.9751313738428584 -0.8150333902436167 0  0.8665379607358412 -0.7522956549768351 0  0.866507412012517 -0.8776920507112558 0  0.7579364824946339 -0.8149685185678733 0  0.7579105028675454 -0.9403375519043209 0  0.8664591563359163 -1.003063911606668 0  0.7578566498173244 -1.06570761780405 0  0.3248448173131987 0.06260863083124135 0  1.083893067089233 0.7522053392182682 0  0.6495916017573917 1.002804704420728 0  0.6495390695087485 1.128124720958234 0  0.6493286086035562 -1.002983876189425 0  0.6492444751237343 -1.12835303640501 0  1.083873907579097 0.8776032265043791 0  1.083719561562728 -0.8777731949711265 0  0.7580709241722678 1.190851653093661 0  0.649469894045057 1.253474513631031 0  0.7578032938091362 -1.191084253213334 0  0.6491623390451466 -1.253731681537431 0  1.409747204836514 -0.1879373177366649 0  1.40975761403562 0.06289241900658486 0  1.409749567615142 0.1883618295687293 0  1.192505181992844 0.8149134925192071 0  0.54105335710638 1.065408377512265 0  0.5411037179786489 0.9401445256473224 0  0.5407475291886857 -1.065617554551859 0  0.5408198401311859 -0.9403086694595302 0  0.8665959699553137 -0.6267497636797308 0  1.409760301898612 -0.4388112271479134 0  1.409753025387469 -0.5642873312765931 0  1.518426999819115 0.1256101644706334 0  1.518414924029519 0.2511054618769016 0  1.409727051028622 0.3138377764034209 0  0.4331763451889839 -0.3753049428747806 0  0.5415217642104331 -0.4379040554119423 0  0.4331118399901733 -0.5004930698386724 0  0.649839
[...]
<PointData  Vectors="f_113-0"> 
<DataArray  type="Float64"  Name="f_113-0"  NumberOfComponents="3" format="ascii">0.0000000000000000e+00 0.0000000000000000e+00 0.0000000000000000e+00  0.0000000000000000e+00 -1.8643934644805547e-02 0.0000000000000000e+00  -1.5873930623196343e-02 0.0000000000000000e+00 0.0000000000000000e+00  0.0000000000000000e+00 -8.7083958833232347e-03 0.0000000000000000e+00  -4.1643056659577612e-03 0.0000000000000000e+00 0.0000000000000000e+00  -6.3215255470224574e-03 0.0000000000000000e+00 0.0000000000000000e+00  -7.8957027471631188e-03 0.0000000000000000e+00 0.0000000000000000e+00  -9.1588854576086110e-03 0.0000000000000000e+00 0.0000000000000000e+00  -1.0225414856905179e-02 0.0000000000000000e+00 0.0000000000000000e+00  -1.1150172805428300e-02 0.0000000000000000e+00 0.0000000000000000e+00  -1.1938703719918193e-02 0.0000000000000000e+00 0.0000000000000000e+00  -1.2625136119354933e-02 0.0000000000000000e+00 0.0000000000000000e+00  -1.3227288526344794e-02 0.0000000000000000e+00 0.0000000000000000e+00  -1.3738984791801937e-02 0.0000000000000000e+00 0.0000000000000000e+00  -1.4184693232808247e-02 0.0000000000000000e+00 0.0000000000000000e+00  -1.4556705156453643e-02 0.0000000000000000e+00 0.0000000000000000e+00  -1.4867141157786888e-02 0.0000000000000000e+00 0.0000000000000000e+00  -1.5114820101513332e-02 0.0000000000000000e+00 0.0000000000000000e+00  -1.5310314499482430e-02 0.0000000000000000e+00 0.0000000000000000e+00  -1.5461712966639077e-02 0.0000000000000000e+00 0.0000000000000000e+00  -1.5549597027837328e-02 0.0000000000000000e+00 0.0000000000000000e+00  -1.5608533915313371e-02 0.0000000000000000e+00 0.0000000000000000e+00  -1.5638563442442702e-02 0.0000000000000000e+00 0.0000000000000000e+00  -1.5638450441758420e-02 0.0000000000000000e+00 0.0000000000000000e+00  -1.5618582777433467e-02 0.0000000000000000e+00 0.0000000000000000e+00  -1.5595834517267993e-02 0.0000000000000000e+00 0.0000000000000000e+00  -1.5586800658961338e-02 0.0000000000000000e+00 0.0000000000000000e+00  -1.5634695346139850e-02 0.0000000000000000e+00 0.0000000000000000e+00  -1.6432670137840326e-02 -5.1458057018941754e-03 0.0000000000000000e+00  -1.6012334267929914e-02 -7.8023025680663272e-03 0.0000000000000000e+00  -1.5400778655185448e-02 -9.8261034513089131e-03 0.0000000000000000e+00  -1.4702781677565332e-02 -1.1451008747912645e-02 0.0000000000000000e+00  -1.3978506272878893e-02 -1.2809889036193615e-02 0.0000000000000000e+00  -1.3235570432820074e-02 -1.3990271420672541e-02 0.0000000000000000e+00  -1.2472517928861298e-02 -1.5018757507545584e-02 0.0000000000000000e+00  -1.1667979940017002e-02 -1.5910356305338987e-02 0.0000000000000000e+00  -1.0831383008157827e-02 -1.6695830739354257e-02 0.0000000000000000e+00  -1.0016142384515075e-02 -1.7342394997509180e-02 0.0000000000000000e+00  -9.1906791035209923e-03 -1.7927348390368327e-02 0.0000000000000000e+00  -8.3698537931226526e-03 -1.8400660384203647e-02 0.0000000000000000e+00  -7.5600515395110209e-03 -1.8795830906486007e-02 0.0000000000000000e+00  -6.7590559710564383e-03 -1.9111465809681497e-02 0.0000000000000000e+00  -5.9872157087424663e-03 -1.9352148224787650e-02 0.0000000000000000e+00  -5.2127994305917373e-03 -1.9509856529613016e-02 0.0000000000000000e+00  -4.4882374833428926e-03 -1.9615687969472658e-02 0.0000000000000000e+00  -3.7820334883067823e-03 -1.9637580403138830e-02 0.0000000000000000e+00  -3.1215702320724248e-03 -1.9629861041282861e-02 0.0000000000000000e+00  -2.5093608092115120e-03 -1.9553530095131895e-02 0.0000000000000000e+00  -1.9370065506171331e-03 -1.9416528457107125e-02 0.0000000000000000e+00  -1.4207334102753167e-03 -1.9260218545642929e-02 0.0000000000000000e+00  -9.6980047259893974e-04 -1.9085576034613212e-02 0.0000000000000000e+00  -5.9471433187255405e-04 -1.8914318093809807e-02 0.0000000000000000e+00  0.0000000000000000e+00 -1.8292108584496636e-02 0.0000000000000000e+00  0.0000000000000000e+00 -1.8025979164675549e-02 0.0000000000000000e+00  0.0000000000000000e+00 -1.7781589230962198e-02 0.0000000000000000e+00  0.0000000000000000e+00 -1.7540975950268430e-02 0.0000000000000000e+00  0.0000000000000000e+00 -1.7302306273140812e-02 0.0000000000000000e+00  0.0000000000000000e+00 -1.7051236382945263e-02 0.0000000000000000e+00  0.0000000000000000e+00 -1.6782588628642608e-02 0.0000000000000000e+00  0.0000000000000000e+00 -1.6502040811063452e-02 0.0000000000000000e+00  0.0000000000000000e+00 -1.6200002145844026e-02 0.0000000000000000e+00  0.0000000000000000e+00 -1.5880747814754938e-02 0.0000000000000000e+00  0.0000000000000000e+00 -1.5540171927555758e-02 0.0000000000000000e+00  0.0000000000000000e+00 -1.5179167853196989e-02 0.0000000000000000e+00  0.0000000000000000e+00 -1.4796819419240523e-02 0.0000000000000000e+00  0.0000000000000000e+00 -1.4394326533122634e-02 0.0000000000000000e+00  0.0000000000000000e+00 -1.3968645786912088e-02 0.0000000000000000e+00  0.0000000000000000e+00 -1.3527102380617039e-02 0.0000000000000000e+00  0.0000000000000000e+00 -1.3063163452737643e-02 0.0000000000000000e+00  0.0000000000000000e+00 -1.2581031887222247e-02 0.0000000000000000e+00  0.0000000000000000e+00 -1.2079209937932432e-02 0.0000000000000000e+00  0.0000000000000000e+00 -1.1559827178878514e-02 0.0000000000000000e+00  0.0000000000000000e+00 -1.1023501687926365e-02 0.0000000000000000e+00  0.0000000000000000e+00 -1.0470061809697843e-02 0.0000000000000000e+00  0.0000000000000000e+00 -9.8995592834951445e-03 0.0000000000000000e+00  0.0000000000000000e+00 -9.3135793106640715e-03 0.0000000000000000e+00  0.0000000000000000e+00 -8.3275143988600173e-03 0.0000000000000000e+00  0.0000000000000000e+00 -7.9326575776117684e-03 0.0000000000000000e+00  0.0000000000000000e+00 -7.5298185771914229e-03 0.0000000000000000e+00  0.0000000000000000e+00 -7.1208202795005216e-03 0.0000000000000000e+00  0.0000000000000000e+00 -6.7091892258483426e-03 0.0000000000000000e+00  0.0000000000000000e+00 -6.2966804086922474e-03 0.0000000000000000e+00  0.0000000000000000e+00 -5.8857849592643032e-03 0.0000000000000000e+00  0.0000000000000000e+00 -5.4800267525212899e-03 0.0000000000000000e+00  0.0000000000000000e+00 -5.0780274321325066e-03 0.0000000000000000e+00  0.0000000000000000e+00 -4.6869431467574229e-03 0.0000000000000000e+00  0.0000000000000000e+00 -4.3014800404224899e-03 0.0000000000000000e+00  0.0000000000000000e+00 -3.9283993249533055e-03 0.0000000000000000e+00  0.0000000000000000e+00 -3.5665063976323490e-03 0.0000000000000000e+00  0.0000000000000000e+00 -3.2180857601861023e-03 0.0000000000000000e+00  0.0000000000000000e+00 -2.8837259904319016e-03 0.0000000000000000e+00  0.0000000000000000e+00 -2.5650714767674015e-03 0.0000000000000000e+00  0.0000000000000000e+00 -2.2612631041831312e-03 0.0000000000000000e+00  0.0000000000000000e+00 -1.9742649256500396e-03 0.0000000000000000e+00  0.0000000000000000e+00 -1.7029548502857416e-03 0.0000000000000000e+00  0.0000000000000000e+00 -1.4466809586888077e-03 0.0000000000000000e+00  0.0000000000000000e+00 -1.1949473283400613e-03 0.0000000000000000e+00  0.0000000000000000e+00 -9.3846149659291460e-04 0.0000000000000000e+00  0.0000000000000000e+00 -6.6660729484418449e-04 0.0000000000000000e+00  0.0000000000000000e+00 -3.9280005457861290e-04 0.0000000000000000e+00  -1.4387722741749497e-02 -2.0035509753339245e-03 0.0000000000000000e+00  -1.3341248949694988e-02 -3.2527820827644074e-03 0.0000000000000000e+00  -1.2419896478543946e-02 -4.1745547310999597e-03 0.0000000000000000e+00  -1.1556921610087886e-02 -4.9167544209746420e-03 0.0000000000000000e+00  -1.0733746400823366e-02 -5.5429002726376702e-03 0.0000000000000000e+00  -9.9364141812668914e-03 -6.0844642082911651e-03 0.0000000000000000e+00  -9.1591372461294028e-03 -6.5598997964677894e-03 0.0000000000000000e+00  -8.3990776765571762e-03 -6.9800458804132022e-03 0.0000000000000000e+00  -7.6558450066834772e-03 -7.3514151230134354e-03 0.0000000000000000e+00  -6.9305461685468701e-03 -7.6779345366415602e-03 0.0000000000000000e+00  -6.2253589361823949e-03 -7.9621351674201059e-03 0.0000000000000000e+00  -5.5435572193507044e-03 -8.2059474634952924e-03 0.0000000000000000e+00  -4.8888547285640752e-03 -8.4109874473612557e-03 0.0000000000000000e+00  -4.2653695754500502e-03 -8.5790749719243022e-03 0.0000000000000000e+00  -3.6772600302530213e-03 -8.7123853091163415e-03 0.0000000000000000e+00  -3.1283293499181817e-03 -8.8134784214957112e-03 0.0000000000000000e+00  -2.6219198676074320e-03 -8.8854102110300752e-03 0.0000000000000000e+00  -2.1606345331616835e-03 -8.9316455846153546e-03 0.0000000000000000e+00  -1.7461412130308455e-03 -8.9559210159972768e-03 0.0000000000000000e+00  -1.3791364114536192e-03 -8.9620966446826988e-03 0.0000000000000000e+00  -1.0593516067519300e-03 -8.9540394130296335e-03 0.0000000000000000e+00  -7.8564572229645677e-04 -8.9353921020241447e-03 0.0000000000000000e+00  -5.5612978592827270e-04 -8.9095220079574555e-03 0.0000000000000000e+00  -3.6822073234928825e-04 -8.8793596443397967e-03 0.0000000000000000e+00  -2.1906876660626851e-04 -8.8474461163881805e-03 0.0000000000000000e+00  -1.0555897681654336e-04 -8.8158685624224100e-03 0.0000000000000000e+00  -2.4436379693637677e-05 -8.7863170817258102e-03 0.0000000000000000e+00  2.7459729808506924e-05 -8.7601358585230934e-03 0.0000000000000000e+00  5.3089258406955480e-05 -8.7383773666991661e-03 0.0000000000000000e+00  5.5424365215195248e-05 -8.7220594662289815e-03 0.0000000000000000e+00  3.6728865221742103e-05 -8.7115617602658256e-03 0.0000000000000000e+00  -2.9677796015573051e-03 -8.3174316565788279e-03 0.0000000000000000e+00  -1.0221254785014618e-02 -7.3037912022229650e-04 0.0000000000000000e+00  -7.7778708398561886e-04 -9.1227939307140431e-04 0.0000000000000000e+00  -1.0087444432905193e-04 -1.7567906923276085e-03 0.0000000000000000e+00  -5.4161209010276873e-03 -7.7059679980127473e-03 0.0000000000000000e+00  -1.2408228867014598e-03 -8.4850651846318081e-03 0.0000000000000000e+00  -1.3419950345494194e-02 -5.5420424903429913e-04 0.0000000000000000e+00  -1.9133427910692189e-05 -3.2328545713121476e-03 0.0000000000000000e+00  -8.3375051804302023e-03 -6.4642087760760072e-03 0.0000000000000000e+00  1.4050864488942462e-05 -4.6551155529462023e-03 0.0000000000000000e+00  -1.4746255078811436e-02 -5.0801816298768037e-04 0.0000000000000000e+00  -4.5941425979114015e-04 -8.4655216935384490e-03 0.0000000000000000e+00  -1.0718963887733005e-02 -5.0074307385752194e-03 0.0000000000000000e+00  -5.6027881776506342e-05 -8.4136385725560002e-03 0.0000000000000000e+00  -1.5130906074918951e-02 -5.3576927890966344e-04 0.0000000000000000e+00  2.6099970766419746e-05 -5.7966431233608543e-03 0.0000000000000000e+00  -6.7435113295622176e-03 -1.1147296543343105e-03 0.0000000000000000e+00  -1.5203711082931745e-02 -5.9641334089366145e-04 0.0000000000000000e+00  3.2798355960794993e-05 -6.9921306839551209e-03 0.0000000000000000e+00  -2.0048798590424802e-03 -8.4418795385303586e-03 0.0000000000000000e+00  -4.1151470440108900e-03 -8.0811396525836601e-03 0.0000000000000000e+00  -6.8342641464520237e-03 -7.1724088499209139e-03 0.0000000000000000e+00  -1.2418747660994026e-02 -3.6438170122790234e-03 0.0000000000000000e+00  4.7565357287127926e-05 -8.3880084335378521e-03 0.0000000000000000e+00  -1.4256468048672510e-02 -5.1172726863578952e-04 0.0000000000000000e+00  -4.4946767896418611e-05 -2.6225402504965415e-03 0.0000000000000000e+00  1.4178627392475581e-06 -3.9492289555495379e-03 0.0000000000000000e+00  -1.2455288635011408e-02 -5.5231715049966642e-04 0.0000000000000000e+00  -1.7740630446915279e-04 -1.3640087412151870e-03 0.0000000000000000e+00  -1.5197727226825938e-02 -6.5996451735885365e-04 0.0000000000000000e+00  3.2980936481829040e-05 -7.7644975131693208e-03 0.0000000000000000e+00  -1.4289148339017961e-02 -1.7781831595791563e-03 0.0000000000000000e+00  4.9825299878038144e-05 -8.4020377041810392e-03 0.0000000000000000e+00  -2.4620590644372415e-03 -8.3917818217425118e-03 0.0000000000000000e+00  -2.7944116619961308e-03 -7.8518157641603026e-03 0.0000000000000000e+00  -3.3475437298519642e-03 -7.7521805638390701e-03 0.0000000000000000e+00  -3.1574806001266977e-03 -7.3170224940865046e-03 0.0000000000000000e+00  -2.6055079406842553e-03 -7.4096719558553858e-03 0.0000000000000000e+00  -2.9468922094488576e-03 -6.9019077820314384e-03 0.0000000000000000e+00  -2.3994693748187104e-03 -6.9840526367069096e-03 0.0000000000000000e+00  -2.7139327546665975e-03 -6.4996409876777739e-03 0.0000000000000000e+00  -3.3162032965629042e-03 -6.4054493320103104e-03 0.0000000000000000e+00  -2.1757330648310581e-03 -6.5684592387333374e-03 0.0000000000000000e+00  -3.0523235352998878e-03 -6.0277996837135323e-03 0.0000000000000000e+00  -3.7154759350861359e-03 -5.9237398592167888e-03 0.0000000000000000e+00  -3.4164311356935455e-03 -5.5714537897524801e-03 0.0000000000000000e+00  -4.1458608118647424e-03 -5.4587134483826960e-03 0.0000000000000000e+00  -3.8091959406983782e-03 -5.1323953356905280e-03 0.0000000000000000e+00  -3.0810025295091407e-03 -5.2154834603870956e-03 0.0000000000000000e+00  -4.6108110091745433e-03 -5.0108229695061098e-03 0.0000000000000000e+00  -4.2355452259555627e-03 -4.7107744498935348e-03 0.0000000000000000e+00  -5.1174563158214456e-03 -4.5784849219492312e-03 0.0000000000000000e+00  -5.4717078224765167e-03 -4.8443696782807036e-03 0.0000000000000000e+00  -6.0532036125172002e-03 -4.3949234036041096e-03 0.0000000000000000e+00  -6.3757168108121804e-03 -4.6303179907528627e-03 0.0000000000000000e+00  -7.0207891325934097e-03 -4.1599926445714686e-03 0.0000000000000000e+00  -7.3055223266233369e-03 -4.3698271793305501e-03 0.0000000000000000e+00  -4.7039511024518496e-03 -4.3042729444533086e-03 0.0000000000000000e+00  -7.9995967726198894e-03 -3.8786554553198226e-03 0.0000000000000000e+00  -8.2455290145725356e-03 -4.0672212151123700e-03 0.0000000000000000e+00  -8.9725214408315560e-03 -3.5588104390865188e-03 0.0000000000000000e+00  -9.1829296999424211e-03 -3.7285983723491125e-03 0.0000000000000000e+00  -7.7118764441481613e-03 -3.6902095716841365e-03 0.0000000000000000e+00  -7.5472798636966659e-03 -4.5857647844106484e-03 0.0000000000000000e+00  -9.9270600769404155e-03 -3.2088994699984762e-03 0.0000000000000000e+00  -1.0107677082069069e-02 -3.3606264640406148e-03 0.0000000000000000e+00  -9.3635045343810307e-03 -3.9025543092036374e-03 0.0000000000000000e+00  -1.0264210044249801e-02 -3.5133374121308395e-03 0.0000000000000000e+00  -1.1011956824906586e-02 -2.9692930169591069e-03 0.0000000000000000e+00  -1.1150683005504312e-02 -3.0988295849845048e-03 0.0000000000000000e+00  -5.7745010438038698e-03 -5.1105924382952384e-03 0.0000000000000000e+00  -3.8037162521722782e-03 -4.3965453094013639e-03 0.0000000000000000e+00  -4.2208771970149370e-03 -4.0113496329454712e-03 0.0000000000000000e+00  -3.3104183697519837e-03 -4.0565959346647914e-03 0.0000000000000000e+00  -3.6573067359766901e-03 -3.6862213868681273e-03 0.0000000000000000e+00  -2.7539532573215173e-03 -3.6770689504686481e-03 0.0000000000000000e+00  -4.6943797387177218e-03 -3.6342613142537486e-03 0.0000000000000000e+00  -2.5226113592865776e-03 -4.0601094185546902e-03 0.0000000000000000e+00  -2.0115341859147282e-03 -3.6389059337818223e-03 0.0000000000000000e+00  -1.8705804790786890e-03 -4.0452897259236854e-03 0.0000000000000000e+00  -1.4325157485902554e-03 -3.6037659854041542e-03 0.0000000000000000e+00  -1.3516273763980594e-03 -4.0330052288087724e-03 0.0000000000000000e+00  -9.9681983497706245e-04 -3.5914008619844446e-03 0.0000000000000000e+00  -9.5007636629366803e-04 -4.0362755402924607e-03 0.0000000000000000e+00  -1.2533227990544145e-03 -4.4676126716895739e-03 0.0000000000000000e+00  -8.8417206796048665e-04 -4.4824204250073487e-03 0.0000000000000000e+00  -6.4484749032828908e-04 -4.0596891969179203e-03 0.0000000000000000e+00  -5.9882845225825638e-04 -4.5112568155711713e-03 0.0000000000000000e+00  -8.0518256064582489e-04 -4.9305424218284467e-03 0.0000000000000000e+00  -5.4098479298093731e-04 -4.9626346256717987e-03 0.0000000000000000e+00  -7.1798760642635575e-04 -5.3805101978733278e-03 0.0000000000000000e+00  -4.7552233629636026e-04 -5.4135207297777320e-03 0.0000000000000000e+00  -6.2653366274593926e-04 -5.8313212553943294e-03 0.0000000000000000e+00  -4.0612816467727243e-04 -5.8629035608680768e-03 0.0000000000000000e+00  -2.9032603905277023e-04 -5.4536407810456631e-03 0.0000000000000000e+00  -2.3811040947677655e-04 -5.8993400254650158e-03 0.0000000000000000e+00  -3.7612327383439027e-03 -7.1946653581014099e-03 0.0000000000000000e+00  -9.7199596463820610e-03 -3.0524745442964043e-03 0.0000000000000000e+00  -1.0397748915605902e-02 -3.6736302370553938e-03 0.0000000000000000e+00  -1.1270891798925906e-02 -3.2313351308781101e-03 0.0000000000000000e+00  -3.3593310717709712e-04 -6.3093230669129590e-03 0.0000000000000000e+00  -1.8562457286489667e-04 -6.3405758875539784e-03 0.0000000000000000e+00  -1.0676066734071687e-02 -2.6949333744678236e-03 0.0000000000000000e+00  -3.8272198590484343e-04 -4.5543232804088002e-03 0.0000000000000000e+00  -1.2015986271290222e-02 -2.6628423567486214e-03 0.0000000000000000e+00  -1.2129543111145240e-02 -2.7633799645087730e-03 0.0000000000000000e+00  -1.1547332558783707e-04 -5.9407509852370966e-03 0.0000000000000000e+00  -7.7412155834041319e-05 -6.3754027714946742e-03 0.0000000000000000e+00  -2.1426946650822060e-03 -3.2433736832687249e-03 0.0000000000000000e+00  -4.0578631802585131e-03 -3.3254061197384053e-03 0.0000000000000000e+00  -5.2488058626639304e-03 -3.2479952419502880e-03 0.0000000000000000e+00  -1.0474862162298176e-02 -2.5393952705809425e-03 0.0000000000000000e+00  -1.0508915275060541e-02 -3.8495537203061102e-03 0.0000000000000000e+00  -9.6435592491899876e-03 -4.2905233791504637e-03 0.0000000000000000e+00  -2.6767766956247249e-04 -6.7508709750757961e-03 0.0000000000000000e+00  -4.4436667806279202e-04 -6.7284896296079767e-03 0.0000000000000000e+00  -1.0271249658096180e-03 -5.3534872008371096e-03 0.0000000000000000e+00  -1.0165755170984726e-03 -3.1456591819556952e-03 0.0000000000000000e+00  -6.7984925712250184e-04 -3.1532785278572117e-03 0.0000000000000000e+00  -4.5481879183848356e-03 -2.9549070954791399e-03 0.0000000000000000e+00  -5.9189571596379720e-03 -2.8152216512300908e-03 0.0000000000000000e+00  -6.4999212033837852e-03 -3.0666280975211197e-03 0.0000000000000000e+00  -1.9123953377415349e-03 -7.0434938652434416e-03 0.0000000000000000e+00  -1.7037183064419446e-03 -6.6181288051087982e-03 0.0000000000000000e+00  -1.4866972147875330e-03 -7.0856076472282890e-03 0.0000000000000000e+00  -1.9344817700335179e-03 -6.1577777144568068e-03 0.0000000000000000e+00  -1.1414504933159167e-02 -2.1778913123672852e-03 0.0000000000000000e+00  -1.2851117967013338e-02 -2.2081131711254504e-03 0.0000000000000000e+00  -1.2964737736463061e-02 -2.2720171057021769e-03 0.0000000000000000e+00  -1.2229064916471603e-02 -2.8672997484384330e-03 0.0000000000000000e+00  -1.2729070085539513e-02 -2.1326648762135000e-03 0.0000000000000000e+00  -1.3069753041702471e-02 -2.3295968798605457e-03 0.0000000000000000e+00  -3.1930056936173699e-05 -5.9869072039253476e-03 0.0000000000000000e+00  -5.7903250791897687e-06 -6.4137806863652285e-03 0.0000000000000000e+00  -4.1822328931243104e-05 -6.8025906422515599e-03 0.0000000000000000e+00  -5.9395106288087960e-05 -5.5536511604219992e-03 0.0000000000000000e+00  1.7288818096326825e-05 -6.8326355341342942e-03 0.0000000000000000e+00  -7.2784504385383754e-03 -2.5608301138127687e-03 0.0000000000000000e+00  -7.7343184812817510e-03 -2.8037520367166172e-03 0.0000000000000000e+00  -1.1218838707002875e-02 -2.0109306950492397e-03 0.0000000000000000e+00  -1.2978026188826372e-03 -6.6540201356161737e-03 0.0000000000000000e+00  -1.1217061331374803e-03 -7.1150043857823161e-03 0.0000000000000000e+00  -9.7457661415782347e-03 -4.5226928023466475e-03 0.0000000000000000e+00  -8.9007929399424566e-03 -4.9521209827711370e-03 0.0000000000000000e+00  -1.2312976720131357e-02 -2.9833959009423552e-03 0.0000000000000000e+00  -1.3165658475515880e-02 -2.3856106419732435e-03 0.0000000000000000e+00  -3.5922936543344959e-04 -7.1702