<?xml version="1.0"?>
<VTKFile type="UnstructuredGrid"  version="0.1"  >
<UnstructuredGrid>
<Piece  NumberOfPoints="1000" NumberOfCells="1898">
<Points>
<DataArray  type="Float64"  NumberOfComponents="3"  format="ascii">2 0 0  -2 0 0  0 2 0  0 -2 0  1.996053456837716 0.1255810393578731 0  1.984229402555223 0.2506664677122601 0  1.964574501275595 0.3747626301243862 0  1.937166321927573 0.4973797756137629 0  1.902113032058523 0.6180339903865582 0  1.859552970992176 0.7362491073503388 0  1.809654103857358 0.8515585854139588 0  1.752613358719046 0.9635073506930532 0  1.68865584926965 1.071653592690939 0  1.618033986646649 1.175570507479816 0  1.541026482962232 1.274847982627361 0  1.457937251802713 1.369094215094766 0  1.369094208649911 1.457937257854835 0  1.274847976447934 1.541026488074299 0  1.175570501763435 1.618033990799842 0  1.071653587205369 1.688655852750899 0  0.9635073455924 1.752613361523153 0  0.8515585806796591 1.80965410608515 0  0.7362491032109458 1.859552972631078 0  0.6180339868872777 1.902113033195508 0  0.4973797728345091 1.937166322641164 0  0.3747626280351212 1.964574501674144 0  0.2506664663712131 1.984229402724637 0  0.1255810386902028 1.996053456879722 0  -0.1255810393578731 1.996053456837716 0  -0.2506664677122601 1.984229402555223 0  -0.3747626301243862 1.964574501275595 0  -0.4973797756137629 1.937166321927573 0  -0.6180339903865582 1.902113032058523 0  -0.7362491073503388 1.859552970992176 0  -0.8515585854139588 1.809654103857358 0  -0.9635073506930532 1.752613358719046 0  -1.071653592690939 1.68865584926965 0  -1.175570507479816 1.618033986646649 0  -1.274847982627361 1.541026482962232 0  -1.369094215094766 1.457937251802713 0  -1.457937257854835 1.369094208649911 0  -1.541026488074299 1.274847976447934 0  -1.618033990799842 1.175570501763435 0  -1.688655852750899 1.071653587205369 0  -1.752613361523153 0.9635073455924 0  -1.80965410608515 0.8515585806796591 0  -1.859552972631078 0.7362491032109458 0  -1.902113033195508 0.6180339868872777 0  -1.937166322641164 0.4973797728345091 0  -1.964574501674144 0.3747626280351212 0  -1.984229402724637 0.2506664663712131 0  -1.996053456879722 0.1255810386902028 0  -1.996053456837716 -0.1255810393578731 0  -1.984229402555223 -0.2506664677122601 0  -1.964574501275595 -0.3747626301243862 0  -1.937166321927573 -0.4973797756137629 0  -1.902113032058523 -0.6180339903865582 0  -1.859552970992176 -0.7362491073503388 0  -1.809654103857358 -0.8515585854139588 0  -1.752613358719046 -0.9635073506930532 0  -1.68865584926965 -1.071653592690939 0  -1.618033986646649 -1.175570507479816 0  -1.541026482962232 -1.274847982627361 0  -1.457937251802713 -1.369094215094766 0  -1.369094208649911 -1.457937257854835 0  -1.274847976447934 -1.541026488074299 0  -1.175570501763435 -1.618033990799842 0  -1.071653587205369 -1.688655852750899 0  -0.9635073455924 -1.752613361523153 0  -0.8515585806796591 -1.80965410608515 0  -0.7362491032109458 -1.859552972631078 0  -0.6180339868872777 -1.902113033195508 0  -0.4973797728345091 -1.937166322641164 0  -0.3747626280351212 -1.964574501674144 0  -0.2506664663712131 -1.984229402724637 0  -0.1255810386902028 -1.996053456879722 0  0.1255810393578731 -1.996053456837716 0  0.2506664677122601 -1.984229402555223 0  0.3747626301243862 -1.964574501275595 0  0.4973797756137629 -1.937166321927573 0  0.6180339903865582 -1.902113032058523 0  0.7362491073503388 -1.859552970992176 0  0.8515585854139588 -1.809654103857358 0  0.9635073506930532 -1.752613358719046 0  1.071653592690939 -1.68865584926965 0  1.175570507479816 -1.618033986646649 0  1.274847982627361 -1.541026482962232 0  1.369094215094766 -1.457937251802713 0  1.457937257854835 -1.369094208649911 0  1.541026488074299 -1.274847976447934 0  1.618033990799842 -1.175570501763435 0  1.688655852750899 -1.071653587205369 0  1.752613361523153 -0.9635073455924 0  1.80965410608515 -0.8515585806796591 0  1.859552972631078 -0.7362491032109458 0  1.902113033195508 -0.6180339868872777 0  1.937166322641164 -0.4973797728345091 0  1.964574501674144 -0.3747626280351212 0  1.984229402724637 -0.2506664663712131 0  1.996053456879722 -0.1255810386902028 0  0 1.875000000000347 0  0 1.750000000000694 0  0 1.625000000001042 0  0 1.500000000001389 0  0 1.375000000001736 0  0 1.250000000002083 0  0 1.125000000002431 0  0 1.000000000002778 0  0 0.8750000000031248 0  0 0.7500000000034714 0  0 0.6250000000038181 0  0 0.5000000000041651 0  0 0.3750000000045119 0  0 0.2500000000048588 0  0 0.1250000000052054 0  0 5.509148692794952e-12 0  0 -0.1249999999947944 0  0 -0.2499999999951412 0  0 -0.3749999999954885 0  0 -0.4999999999958358 0  0 -0.6249999999961826 0  0 -0.7499999999965299 0  0 -0.8749999999968767 0  0 -0.9999999999972236 0  0 -1.124999999997571 0  0 -1.249999999997918 0  0 -1.374999999998265 0  0 -1.499999999998612 0  0 -1.624999999998959 0  0 -1.749999999999306 0  0 -1.874999999999653 0  0.1082566336411304 -0.06249721138958328 0  1.769978925506156 0.6331774562186441 0  1.903135250199003 -0.0421944281877976 0  1.792767445305666 -0.6282195673649206 0  0.1078956266195906 0.4379732200456621 0  0.1081271557368096 -0.5626689135955911 0  1.497668507878613 1.144813795188484 0  1.495381822911744 -1.145186948587215 0  0.1077698321064012 0.9381801610794744 0  1.157591104880423 -1.496075542580389 0  1.15761904203644 1.496061189440118 0  0.107575378454425 -0.9379662415906492 0  0.1074881112432003 1.313364166073589 0  0.1073778204410697 -1.313431641428223 0  0.8581342293190556 1.6841832595155 0  0.8581342337129338 -1.684183256634205 0  1.851368580255463 0.2906826398251708 0  0.5249232492507638 1.815716715781448 0  0.5247778178913532 -1.815859379803398 0  0.1082353668846179 -0.3125509518049559 0  0.1080661273743536 0.1877645712619083 0  0.1078389931990292 0.6880769333414208 0  0.1073280526202888 1.563564970749537 0  0.107160679408544 -1.563615704201531 0  1.331581140402051 1.343190159103474 0  1.626802386652038 -0.9547108573666147 0  1.331552991861951 -1.343226601516206 0  1.631290071630766 0.9577989114228483 0  1.84669162712044 -0.4306457728829043 0  0.2975456488863658 1.873063487819802 0  0.2974751810617229 -1.873107343544094 0  0.09992055001738553 1.810702223800652 0  0.09984374948150972 -1.810705277930003 0  0.1082634647023108 -0.1875124211170647 0  0.2165510801728112 -0.1250032029974569 0  0.2165375172674545 4.221557482128871e-05 0  0.3248562165324149 -0.06247441291907704 0  0.3248585342277372 -0.1875624957204239 0  0.4332059573819909 -0.1250129595067874 0  0.4331985536034745 -0.250149813714412 0  0.5415852610461236 -0.1875723568446455 0  0.5415782023182074 -0.06241747692835881 0  0.5415829075105126 -0.3127317546530641 0  0.6499951624913161 -0.1249882924353291 0  0.6499156431939851 0.0003411059576302356 0  0.7584280238324674 -0.0623683986668593 0  0.7583381724307633 0.06301562139675367 0  0.8668942700507976 0.0002683876425051863 0  0.866904510818723 -0.1250308766382796 0  0.8668767636421114 0.1255591576030338 0  0.9754116371444833 0.0628928043742497 0  0.9754021224577029 0.1881893631214195 0  0.8668629130281992 0.2508426644318986 0  0.9753569972839978 0.3135148713980606 0  0.866839831793855 0.3761708347018111 0  0.9753431037724689 0.4388429871445935 0  0.866814648621348 0.5015010374276645 0  1.08393778919224 0.1255687039628436 0  0.9753369371520746 0.5641756407549315 0  0.8667849648470651 0.6268301269324548 0  0.9753189275771859 0.6895148186252987 0  0.8667545615587615 0.7521740478557806 0  1.08385809393457 0.5015670232038342 0  0.758249404512794 0.5641705835239291 0  0.975302017944805 0.814871697805804 0  0.8667237648340388 0.8775175004498103 0  0.7581711938478721 0.8148596678356821 0  0.758152425351844 0.9401730681893621 0  0.8666825215745161 1.002861206150922 0  0.7581094324766745 1.065502470213594 0  0.758328044826707 0.3134677110852433 0  1.083954067831041 0.0001938695472883667 0  1.19252231816974 0.06290459522933686 0  1.19252567041104 -0.06251801314282313 0  1.301128126712873 0.0001827802610413903 0  1.301130552695204 -0.1252317881558162 0  1.301115330419242 0.1256342297122375 0  1.192511328347185 -0.1879356955324901 0  1.301122730134966 -0.2506554158895156 0  1.192479750429495 -0.3133640044251623 0  1.301109212144929 -0.376083371131565 0  1.192456591795897 -0.4387979527390329 0  1.301099955648029 -0.5015268693521127 0  1.192451042906288 -0.5642305205519469 0  1.083808608024566 -0.5015171362738394 0  1.083797611734733 -0.6269374026706226 0  1.192424372222687 -0.6896688318832552 0  1.083773414310783 -0.7523626977114914 0  0.9751635753458996 -0.6896283291284873 0  0.9751313738428584 -0.8150333902436167 0  0.8665379607358412 -0.7522956549768351 0  0.866507412012517 -0.8776920507112558 0  0.7579364824946339 -0.8149685185678733 0  0.7579105028675454 -0.9403375519043209 0  0.8664591563359163 -1.003063911606668 0  0.7578566498173244 -1.06570761780405 0  0.3248448173131987 0.06260863083124135 0  1.083893067089233 0.7522053392182682 0  0.6495916017573917 1.002804704420728 0  0.6495390695087485 1.128124720958234 0  0.6493286086035562 -1.002983876189425 0  0.6492444751237343 -1.12835303640501 0  1.083873907579097 0.8776032265043791 0  1.083719561562728 -0.8777731949711265 0  0.7580709241722678 1.190851653093661 0  0.649469894045057 1.253474513631031 0  0.7578032938091362 -1.191084253213334 0  0.6491623390451466 -1.253731681537431 0  1.409747204836514 -0.1879373177366649 0  1.40975761403562 0.06289241900658486 0  1.409749567615142 0.1883618295687293 0  1.192505181992844 0.8149134925192071 0  0.54105335710638 1.065408377512265 0  0.5411037179786489 0.9401445256473224 0  0.5407475291886857 -1.065617554551859 0  0.5408198401311859 -0.9403086694595302 0  0.8665959699553137 -0.6267497636797308 0  1.409760301898612 -0.4388112271479134 0  1.409753025387469 -0.5642873312765931 0  1.518426999819115 0.1256101644706334 0  1.518414924029519 0.2511054618769016 0  1.409727051028622 0.3138377764034209 0  0.4331763451889839 -0.3753049428747806 0  0.5415217642104331 -0.4379040554119423 0  0.4331118399901733 -0.5004930698386724 0  0.649839
[...]
<PointData  Vectors="f_65-0"> 
<DataArray  type="Float64"  Name="f_65-0"  NumberOfComponents="3" format="ascii">0.0000000000000000e+00 0.0000000000000000e+00 0.0000000000000000e+00  0.0000000000000000e+00 -1.8466748326635037e-02 0.0000000000000000e+00  -1.6009749691297644e-02 0.0000000000000000e+00 0.0000000000000000e+00  0.0000000000000000e+00 -8.5448784772879892e-03 0.0000000000000000e+00  -4.3123285001978985e-03 0.0000000000000000e+00 0.0000000000000000e+00  -6.5497864490310278e-03 0.0000000000000000e+00 0.0000000000000000e+00  -8.1818198924681652e-03 0.0000000000000000e+00 0.0000000000000000e+00  -9.4840435983070594e-03 0.0000000000000000e+00 0.0000000000000000e+00  -1.0578496419756715e-02 0.0000000000000000e+00 0.0000000000000000e+00  -1.1528496321706005e-02 0.0000000000000000e+00 0.0000000000000000e+00  -1.2328747974022218e-02 0.0000000000000000e+00 0.0000000000000000e+00  -1.3020575541446590e-02 0.0000000000000000e+00 0.0000000000000000e+00  -1.3629674122151358e-02 0.0000000000000000e+00 0.0000000000000000e+00  -1.4134710087476882e-02 0.0000000000000000e+00 0.0000000000000000e+00  -1.4580800226261152e-02 0.0000000000000000e+00 0.0000000000000000e+00  -1.4945345345893361e-02 0.0000000000000000e+00 0.0000000000000000e+00  -1.5246054871133594e-02 0.0000000000000000e+00 0.0000000000000000e+00  -1.5481130304341485e-02 0.0000000000000000e+00 0.0000000000000000e+00  -1.5662088878398338e-02 0.0000000000000000e+00 0.0000000000000000e+00  -1.5797073361861393e-02 0.0000000000000000e+00 0.0000000000000000e+00  -1.5862157487590397e-02 0.0000000000000000e+00 0.0000000000000000e+00  -1.5900959949652595e-02 0.0000000000000000e+00 0.0000000000000000e+00  -1.5914550525528787e-02 0.0000000000000000e+00 0.0000000000000000e+00  -1.5895261303382653e-02 0.0000000000000000e+00 0.0000000000000000e+00  -1.5852099383664497e-02 0.0000000000000000e+00 0.0000000000000000e+00  -1.5804051402741721e-02 0.0000000000000000e+00 0.0000000000000000e+00  -1.5771401345840975e-02 0.0000000000000000e+00 0.0000000000000000e+00  -1.5794885342985544e-02 0.0000000000000000e+00 0.0000000000000000e+00  -1.6526587364724531e-02 -5.1190467547909358e-03 0.0000000000000000e+00  -1.6097092474209485e-02 -7.7450078557210781e-03 0.0000000000000000e+00  -1.5482499723730794e-02 -9.7580109706512323e-03 0.0000000000000000e+00  -1.4779250327643082e-02 -1.1375317358998511e-02 0.0000000000000000e+00  -1.4052379828359550e-02 -1.2727716233720524e-02 0.0000000000000000e+00  -1.3308879744986849e-02 -1.3906189031443018e-02 0.0000000000000000e+00  -1.2545007655867585e-02 -1.4939175614880767e-02 0.0000000000000000e+00  -1.1730027757306843e-02 -1.5838270498773850e-02 0.0000000000000000e+00  -1.0879283194445069e-02 -1.6623739844766068e-02 0.0000000000000000e+00  -1.0053629668374989e-02 -1.7265191823235947e-02 0.0000000000000000e+00  -9.2236396852274360e-03 -1.7845828020545674e-02 0.0000000000000000e+00  -8.3974319400533654e-03 -1.8315199291280754e-02 0.0000000000000000e+00  -7.5785573179260220e-03 -1.8710496807071729e-02 0.0000000000000000e+00  -6.7698893009173339e-03 -1.9022155998358027e-02 0.0000000000000000e+00  -5.9941506716065822e-03 -1.9265828670871281e-02 0.0000000000000000e+00  -5.2044931384936507e-03 -1.9411362626861436e-02 0.0000000000000000e+00  -4.4788333454663974e-03 -1.9518876186327673e-02 0.0000000000000000e+00  -3.7603011595595029e-03 -1.9524662935277128e-02 0.0000000000000000e+00  -3.1011426475211386e-03 -1.9516162465731381e-02 0.0000000000000000e+00  -2.4777069299331640e-03 -1.9435431380635648e-02 0.0000000000000000e+00  -1.8971973646026311e-03 -1.9274646520351605e-02 0.0000000000000000e+00  -1.3868966233648056e-03 -1.9106723015766113e-02 0.0000000000000000e+00  -9.4044911524487679e-04 -1.8920415603545172e-02 0.0000000000000000e+00  -5.7710967054910162e-04 -1.8740987025840948e-02 0.0000000000000000e+00  0.0000000000000000e+00 -1.8123591721742459e-02 0.0000000000000000e+00  0.0000000000000000e+00 -1.7863838897999862e-02 0.0000000000000000e+00  0.0000000000000000e+00 -1.7624715789475713e-02 0.0000000000000000e+00  0.0000000000000000e+00 -1.7387728539032688e-02 0.0000000000000000e+00  0.0000000000000000e+00 -1.7151728471660185e-02 0.0000000000000000e+00  0.0000000000000000e+00 -1.6902742654731719e-02 0.0000000000000000e+00  0.0000000000000000e+00 -1.6635597549551510e-02 0.0000000000000000e+00  0.0000000000000000e+00 -1.6356036549548179e-02 0.0000000000000000e+00  0.0000000000000000e+00 -1.6054683053459091e-02 0.0000000000000000e+00  0.0000000000000000e+00 -1.5735745734208446e-02 0.0000000000000000e+00  0.0000000000000000e+00 -1.5395237722568249e-02 0.0000000000000000e+00  0.0000000000000000e+00 -1.5034036236067751e-02 0.0000000000000000e+00  0.0000000000000000e+00 -1.4651258530318968e-02 0.0000000000000000e+00  0.0000000000000000e+00 -1.4248115638903953e-02 0.0000000000000000e+00  0.0000000000000000e+00 -1.3821593348738722e-02 0.0000000000000000e+00  0.0000000000000000e+00 -1.3379009913762410e-02 0.0000000000000000e+00  0.0000000000000000e+00 -1.2913874490711449e-02 0.0000000000000000e+00  0.0000000000000000e+00 -1.2430389659259928e-02 0.0000000000000000e+00  0.0000000000000000e+00 -1.1927069436435119e-02 0.0000000000000000e+00  0.0000000000000000e+00 -1.1406062794503744e-02 0.0000000000000000e+00  0.0000000000000000e+00 -1.0867990905318885e-02 0.0000000000000000e+00  0.0000000000000000e+00 -1.0312694934860318e-02 0.0000000000000000e+00  0.0000000000000000e+00 -9.7402293975191404e-03 0.0000000000000000e+00  0.0000000000000000e+00 -9.1522037880066211e-03 0.0000000000000000e+00  0.0000000000000000e+00 -8.1625226303047964e-03 0.0000000000000000e+00  0.0000000000000000e+00 -7.7661228387182167e-03 0.0000000000000000e+00  0.0000000000000000e+00 -7.3617111680063657e-03 0.0000000000000000e+00  0.0000000000000000e+00 -6.9511285753851917e-03 0.0000000000000000e+00  0.0000000000000000e+00 -6.5379228713262844e-03 0.0000000000000000e+00  0.0000000000000000e+00 -6.1238692476432086e-03 0.0000000000000000e+00  0.0000000000000000e+00 -5.7114736377161125e-03 0.0000000000000000e+00  0.0000000000000000e+00 -5.3042869442105562e-03 0.0000000000000000e+00  0.0000000000000000e+00 -4.9009415042468489e-03 0.0000000000000000e+00  0.0000000000000000e+00 -4.5086147668759345e-03 0.0000000000000000e+00  0.0000000000000000e+00 -4.1220518109382704e-03 0.0000000000000000e+00  0.0000000000000000e+00 -3.7480261496385210e-03 0.0000000000000000e+00  0.0000000000000000e+00 -3.3853858992756508e-03 0.0000000000000000e+00  0.0000000000000000e+00 -3.0364526706345863e-03 0.0000000000000000e+00  0.0000000000000000e+00 -2.7018958791108919e-03 0.0000000000000000e+00  0.0000000000000000e+00 -2.3833535688685481e-03 0.0000000000000000e+00  0.0000000000000000e+00 -2.0802537233150361e-03 0.0000000000000000e+00  0.0000000000000000e+00 -1.7945139375699604e-03 0.0000000000000000e+00  0.0000000000000000e+00 -1.5256688924034450e-03 0.0000000000000000e+00  0.0000000000000000e+00 -1.2738483196520266e-03 0.0000000000000000e+00  0.0000000000000000e+00 -1.0292440265705285e-03 0.0000000000000000e+00  0.0000000000000000e+00 -7.8492195160211888e-04 0.0000000000000000e+00  0.0000000000000000e+00 -5.3368259924552164e-04 0.0000000000000000e+00  0.0000000000000000e+00 -2.9732690928201372e-04 0.0000000000000000e+00  -1.4529789612067997e-02 -1.9665231956411170e-03 0.0000000000000000e+00  -1.3469142143124713e-02 -3.1603319596869655e-03 0.0000000000000000e+00  -1.2533001193854025e-02 -4.0419263482623282e-03 0.0000000000000000e+00  -1.1657413599826671e-02 -4.7605601817955244e-03 0.0000000000000000e+00  -1.0823681334974198e-02 -5.3749551752056658e-03 0.0000000000000000e+00  -1.0017389457439328e-02 -5.9118009163002649e-03 0.0000000000000000e+00  -9.2322259990810264e-03 -6.3863263551950924e-03 0.0000000000000000e+00  -8.4649723755832688e-03 -6.8074431409665672e-03 0.0000000000000000e+00  -7.7150292860792974e-03 -7.1805749324471198e-03 0.0000000000000000e+00  -6.9834099084683582e-03 -7.5090624077638213e-03 0.0000000000000000e+00  -6.2722618044808763e-03 -7.7951347629373526e-03 0.0000000000000000e+00  -5.5848689667918590e-03 -8.0405792113895924e-03 0.0000000000000000e+00  -4.9249646302624408e-03 -8.2469527505074566e-03 0.0000000000000000e+00  -4.2966877176810999e-03 -8.4160673016354295e-03 0.0000000000000000e+00  -3.7042102015053574e-03 -8.5501175381082640e-03 0.0000000000000000e+00  -3.1513383702440356e-03 -8.6516969536937788e-03 0.0000000000000000e+00  -2.6414076825595476e-03 -8.7239022316280921e-03 0.0000000000000000e+00  -2.1770050100012547e-03 -8.7702410327239345e-03 0.0000000000000000e+00  -1.7597742931543237e-03 -8.7944906155441975e-03 0.0000000000000000e+00  -1.3903830483605615e-03 -8.8005475755575536e-03 0.0000000000000000e+00  -1.0685310635338502e-03 -8.7923100640868671e-03 0.0000000000000000e+00  -7.9304513333948109e-04 -8.7734460869437550e-03 0.0000000000000000e+00  -5.6200569636266574e-04 -8.7473424965912195e-03 0.0000000000000000e+00  -3.7280104464771356e-04 -8.7169445648690360e-03 0.0000000000000000e+00  -2.2255645211957371e-04 -8.6848041724237480e-03 0.0000000000000000e+00  -1.0813519999602126e-04 -8.6530162294754884e-03 0.0000000000000000e+00  -2.6263141218591982e-05 -8.6232765127403233e-03 0.0000000000000000e+00  2.6236841728090688e-05 -8.5969334460125977e-03 0.0000000000000000e+00  5.2338424508726781e-05 -8.5750428929311766e-03 0.0000000000000000e+00  5.5027183100204059e-05 -8.5586266036733420e-03 0.0000000000000000e+00  3.6580506534076380e-05 -8.5480655546040091e-03 0.0000000000000000e+00  -2.9895018545909985e-03 -8.1528161565015897e-03 0.0000000000000000e+00  -1.0543470704345989e-02 -7.0422597213022923e-04 0.0000000000000000e+00  -8.2103194417639154e-04 -8.1968619943435447e-04 0.0000000000000000e+00  -1.0459952309698130e-04 -1.5813815442134226e-03 0.0000000000000000e+00  -5.4563854719372794e-03 -7.5368586231961323e-03 0.0000000000000000e+00  -1.2510534513909715e-03 -8.3212216209593830e-03 0.0000000000000000e+00  -1.3781632682056981e-02 -5.3637649063621837e-04 0.0000000000000000e+00  -2.0165264196299760e-05 -3.0517554319275460e-03 0.0000000000000000e+00  -8.4035352176106311e-03 -6.2846735908305704e-03 0.0000000000000000e+00  1.3634398974548832e-05 -4.4768771272006075e-03 0.0000000000000000e+00  -1.5078597971630282e-02 -4.9530149922734259e-04 0.0000000000000000e+00  -4.6456198850740158e-04 -8.3014160154350602e-03 0.0000000000000000e+00  -1.0811197113466295e-02 -4.8255581872873009e-03 0.0000000000000000e+00  -5.8142129086963869e-05 -8.2491584967277314e-03 0.0000000000000000e+00  -1.5418251771247175e-02 -5.2207111620864723e-04 0.0000000000000000e+00  2.5869013148953191e-05 -5.6221055318768963e-03 0.0000000000000000e+00  -6.9620310991957710e-03 -1.0694698011374255e-03 0.0000000000000000e+00  -1.5431995424950584e-02 -5.8384698426450254e-04 0.0000000000000000e+00  3.2659306027862821e-05 -6.8219911242141428e-03 0.0000000000000000e+00  -2.0200649568492832e-03 -8.2779194291329565e-03 0.0000000000000000e+00  -4.1452089943721593e-03 -7.9149525841419096e-03 0.0000000000000000e+00  -6.8865187684499637e-03 -6.9987245472676847e-03 0.0000000000000000e+00  -1.2537229692634350e-02 -3.4902564283963897e-03 0.0000000000000000e+00  4.6646329291222592e-05 -8.2233392978005443e-03 0.0000000000000000e+00  -1.4609595020268169e-02 -4.9784509787853168e-04 0.0000000000000000e+00  -4.6554284432633020e-05 -2.4416587653177261e-03 0.0000000000000000e+00  7.9804618556138396e-07 -3.7691939520661535e-03 0.0000000000000000e+00  -1.2819420114691654e-02 -5.3530894456036641e-04 0.0000000000000000e+00  -1.8484670765316741e-04 -1.1984646100703974e-03 0.0000000000000000e+00  -1.5384715394865533e-02 -6.4946804680838144e-04 0.0000000000000000e+00  3.2874434835947032e-05 -7.5973307058068906e-03 0.0000000000000000e+00  -1.4438753366299663e-02 -1.7212286592867144e-03 0.0000000000000000e+00  4.9582217343331836e-05 -8.2373589211480643e-03 0.0000000000000000e+00  -2.4802990918587572e-03 -8.2275827171673418e-03 0.0000000000000000e+00  -2.8148155572416179e-03 -7.6847385553917872e-03 0.0000000000000000e+00  -3.3718572394409226e-03 -7.5843888407088750e-03 0.0000000000000000e+00  -3.1803529853132490e-03 -7.1470933582661461e-03 0.0000000000000000e+00  -2.6245282797404085e-03 -7.2404498254163580e-03 0.0000000000000000e+00  -2.9681988059717325e-03 -6.7301547465285485e-03 0.0000000000000000e+00  -2.4170291563976030e-03 -6.8129415154575728e-03 0.0000000000000000e+00  -2.7335482236102047e-03 -6.3262985417257243e-03 0.0000000000000000e+00  -3.3400417340662550e-03 -6.2313947194062328e-03 0.0000000000000000e+00  -2.1917647435056708e-03 -6.3956583693167753e-03 0.0000000000000000e+00  -3.0741694526996602e-03 -5.8525088055042347e-03 0.0000000000000000e+00  -3.7421107187743698e-03 -5.7477669145039835e-03 0.0000000000000000e+00  -3.4406993276885371e-03 -5.3946509377262404e-03 0.0000000000000000e+00  -4.1756015149588994e-03 -5.2814035145729420e-03 0.0000000000000000e+00  -3.8361557123528386e-03 -4.9547274527217489e-03 0.0000000000000000e+00  -3.1027809154944410e-03 -5.0378829044846378e-03 0.0000000000000000e+00  -4.6441191293283999e-03 -4.8330301839968181e-03 0.0000000000000000e+00  -4.2656902377570761e-03 -4.5332064677891326e-03 0.0000000000000000e+00  -5.1551820459956304e-03 -4.4014717298375200e-03 0.0000000000000000e+00  -5.5126810052095769e-03 -4.6662496914127768e-03 0.0000000000000000e+00  -6.1002212937222014e-03 -4.2183104720445834e-03 0.0000000000000000e+00  -6.4257790363619607e-03 -4.4515247516750496e-03 0.0000000000000000e+00  -7.0789207185931111e-03 -3.9834762811849665e-03 0.0000000000000000e+00  -7.3661569599005250e-03 -4.1899478267567883e-03 0.0000000000000000e+00  -4.7383216860215627e-03 -4.1282834694772157e-03 0.0000000000000000e+00  -8.0707323057681492e-03 -3.7019521324173276e-03 0.0000000000000000e+00  -8.3182793281707645e-03 -3.8859506572085805e-03 0.0000000000000000e+00  -9.0586502825299939e-03 -3.3819665414054835e-03 0.0000000000000000e+00  -9.2694628173346175e-03 -3.5460311128273411e-03 0.0000000000000000e+00  -7.7814939309254014e-03 -3.5187570767286035e-03 0.0000000000000000e+00  -7.6100799183668102e-03 -4.4030015664286107e-03 0.0000000000000000e+00  -1.0030422360234185e-02 -3.0327456727065839e-03 0.0000000000000000e+00  -1.0209934842624635e-02 -3.1776951974147442e-03 0.0000000000000000e+00  -9.4504560718491597e-03 -3.7152704713548259e-03 0.0000000000000000e+00  -1.0365666776838806e-02 -3.3249303943170081e-03 0.0000000000000000e+00  -1.1132389733551205e-02 -2.7883958175712827e-03 0.0000000000000000e+00  -1.1268875433849907e-02 -2.9119546835043868e-03 0.0000000000000000e+00  -5.8183942661503571e-03 -4.9314334025317257e-03 0.0000000000000000e+00  -3.8306947204226971e-03 -4.2190586103480919e-03 0.0000000000000000e+00  -4.2521069324316851e-03 -3.8362091395978959e-03 0.0000000000000000e+00  -3.3345217356485421e-03 -3.8790288280159996e-03 0.0000000000000000e+00  -3.6860000994508048e-03 -3.5117912406778555e-03 0.0000000000000000e+00  -2.7757690454969270e-03 -3.4993968557984192e-03 0.0000000000000000e+00  -4.7328513744684950e-03 -3.4643848167655749e-03 0.0000000000000000e+00  -2.5415087530726724e-03 -3.8809574275581668e-03 0.0000000000000000e+00  -2.0285485398408025e-03 -3.4593874548445262e-03 0.0000000000000000e+00  -1.8856227034030496e-03 -3.8653628773513094e-03 0.0000000000000000e+00  -1.4459977364361795e-03 -3.4234877361207757e-03 0.0000000000000000e+00  -1.3636739195777834e-03 -3.8528927999704242e-03 0.0000000000000000e+00  -1.0074733069675909e-03 -3.4109792182682535e-03 0.0000000000000000e+00  -9.5966205768630703e-04 -3.8562952817863924e-03 0.0000000000000000e+00  -1.2642747278589260e-03 -4.2882972452261388e-03 0.0000000000000000e+00  -8.9288229900443363e-04 -4.3033722738338720e-03 0.0000000000000000e+00  -6.5234644377468046e-04 -3.8799571281202482e-03 0.0000000000000000e+00  -6.0563681121243577e-04 -4.3325241020767836e-03 0.0000000000000000e+00  -8.1309580428016429e-04 -4.7527408819515960e-03 0.0000000000000000e+00  -5.4714020171788078e-04 -4.7851685821305124e-03 0.0000000000000000e+00  -7.2513679802968392e-04 -5.2041703071821167e-03 0.0000000000000000e+00  -4.8104474323887249e-04 -5.2375065426985210e-03 0.0000000000000000e+00  -6.3294127339555807e-04 -5.6565931214097925e-03 0.0000000000000000e+00  -4.1103834269728815e-04 -5.6884691358049773e-03 0.0000000000000000e+00  -2.9448380409767322e-04 -5.2779216715493288e-03 0.0000000000000000e+00  -2.4177282689189826e-04 -5.7251664755797980e-03 0.0000000000000000e+00  -3.7885158644663276e-03 -7.0237570691123897e-03 0.0000000000000000e+00  -9.8252309889279941e-03 -2.8844409194173329e-03 0.0000000000000000e+00  -1.0498400551391559e-02 -3.4811124931263303e-03 0.0000000000000000e+00  -1.1387130467503153e-02 -3.0402251470002810e-03 0.0000000000000000e+00  -3.4025931709095347e-04 -6.1365515640180047e-03 0.0000000000000000e+00  -1.8881672489599747e-04 -6.1680184255351184e-03 0.0000000000000000e+00  -1.0803592921936531e-02 -2.5310483658821607e-03 0.0000000000000000e+00  -3.8791530644894848e-04 -4.3758960248862153e-03 0.0000000000000000e+00  -1.2153954253025888e-02 -2.4827507381133805e-03 0.0000000000000000e+00  -1.2264219957950625e-02 -2.5795842186665768e-03 0.0000000000000000e+00  -1.1810787665458146e-04 -5.7668052638627692e-03 0.0000000000000000e+00  -7.9676845857721946e-05 -6.2030314885741199e-03 0.0000000000000000e+00  -2.1629716192792183e-03 -3.0659560876744553e-03 0.0000000000000000e+00  -4.0951053196894641e-03 -3.1578585195451863e-03 0.0000000000000000e+00  -5.3007388612704561e-03 -3.0882151275997047e-03 0.0000000000000000e+00  -1.0608731814345436e-02 -2.3867345571698573e-03 0.0000000000000000e+00  -1.0608571221704378e-02 -3.6544538885114166e-03 0.0000000000000000e+00  -9.7305405697145284e-03 -4.0971966410669764e-03 0.0000000000000000e+00  -2.7145778468521238e-04 -6.5798064273554970e-03 0.0000000000000000e+00  -4.4939068211319544e-04 -6.5572418690839507e-03 0.0000000000000000e+00  -1.0362089046045755e-03 -5.1768055807989580e-03 0.0000000000000000e+00  -1.0287199257973684e-03 -2.9656199497664969e-03 0.0000000000000000e+00  -6.8908086568441002e-04 -2.9729964931377272e-03 0.0000000000000000e+00  -4.6021312185722234e-03 -2.8007340032189447e-03 0.0000000000000000e+00  -5.9962437070539441e-03 -2.6731629591800177e-03 0.0000000000000000e+00  -6.5715583812976132e-03 -2.9154360696212194e-03 0.0000000000000000e+00  -1.9267538038505395e-03 -6.8728584818589103e-03 0.0000000000000000e+00  -1.7167260531857872e-03 -6.4457564862631413e-03 0.0000000000000000e+00  -1.4983370466203872e-03 -6.9153315648644888e-03 0.0000000000000000e+00  -1.9489440297024649e-03 -5.9834448079811465e-03 0.0000000000000000e+00  -1.1577791148441261e-02 -2.0349126581445699e-03 0.0000000000000000e+00  -1.3012954013171041e-02 -2.0438742630283649e-03 0.0000000000000000e+00  -1.3121667027240630e-02 -2.1057290629776728e-03 0.0000000000000000e+00  -1.2360759219253571e-02 -2.6823980686513519e-03 0.0000000000000000e+00  -1.2896804538791802e-02 -1.9735639913347628e-03 0.0000000000000000e+00  -1.3222441663889696e-02 -2.1648534371237894e-03 0.0000000000000000e+00  -3.3732016461335477e-05 -5.8131605700609641e-03 0.0000000000000000e+00  -7.3102193179853352e-06 -6.2415727210941479e-03 0.0000000000000000e+00  -4.3744961838747429e-05 -6.6318193070471210e-03 0.0000000000000000e+00  -6.1493985634441281e-05 -5.3784147209631544e-03 0.0000000000000000e+00  1.6027201258437962e-05 -6.6619838709636526e-03 0.0000000000000000e+00  -7.3855358581363471e-03 -2.4308917391517655e-03 0.0000000000000000e+00  -7.8306530554933199e-03 -2.6611894421520732e-03 0.0000000000000000e+00  -1.1395840696082484e-02 -1.8830686866081704e-03 0.0000000000000000e+00  -1.3082674611497281e-03 -6.4819985786458145e-03 0.0000000000000000e+00  -1.1310478725477604e-03 -6.9450041680863238e-03 0.0000000000000000e+00  -9.8321700156538770e-03 -4.3284316549415704e-03 0.0000000000000000e+00  -8.9766478919632454e-03 -4.7612432059897358e-03 0.0000000000000000e+00  -1.2441799907562731e-02 -2.8003889559508055e-03 0.0000000000000000e+00  -1.3314369782989107e-02 -2.2263722978553171e-03 0.0000000000000000e+00  -3.6363457835240280e-04 -7.000769