<?xml version="1.0"?>
<VTKFile type="UnstructuredGrid"  version="0.1"  >
<UnstructuredGrid>
<Piece  NumberOfPoints="1000" NumberOfCells="1898">
<Points>
<DataArray  type="Float64"  NumberOfComponents="3"  format="ascii">2 0 0  -2 0 0  0 2 0  0 -2 0  1.996053456837716 0.1255810393578731 0  1.984229402555223 0.2506664677122601 0  1.964574501275595 0.3747626301243862 0  1.937166321927573 0.4973797756137629 0  1.902113032058523 0.6180339903865582 0  1.859552970992176 0.7362491073503388 0  1.809654103857358 0.8515585854139588 0  1.752613358719046 0.9635073506930532 0  1.68865584926965 1.071653592690939 0  1.618033986646649 1.175570507479816 0  1.541026482962232 1.274847982627361 0  1.457937251802713 1.369094215094766 0  1.369094208649911 1.457937257854835 0  1.274847976447934 1.541026488074299 0  1.175570501763435 1.618033990799842 0  1.071653587205369 1.688655852750899 0  0.9635073455924 1.752613361523153 0  0.8515585806796591 1.80965410608515 0  0.7362491032109458 1.859552972631078 0  0.6180339868872777 1.902113033195508 0  0.4973797728345091 1.937166322641164 0  0.3747626280351212 1.964574501674144 0  0.2506664663712131 1.984229402724637 0  0.1255810386902028 1.996053456879722 0  -0.1255810393578731 1.996053456837716 0  -0.2506664677122601 1.984229402555223 0  -0.3747626301243862 1.964574501275595 0  -0.4973797756137629 1.937166321927573 0  -0.6180339903865582 1.902113032058523 0  -0.7362491073503388 1.859552970992176 0  -0.8515585854139588 1.809654103857358 0  -0.9635073506930532 1.752613358719046 0  -1.071653592690939 1.68865584926965 0  -1.175570507479816 1.618033986646649 0  -1.274847982627361 1.541026482962232 0  -1.369094215094766 1.457937251802713 0  -1.457937257854835 1.369094208649911 0  -1.541026488074299 1.274847976447934 0  -1.618033990799842 1.175570501763435 0  -1.688655852750899 1.071653587205369 0  -1.752613361523153 0.9635073455924 0  -1.80965410608515 0.8515585806796591 0  -1.859552972631078 0.7362491032109458 0  -1.902113033195508 0.6180339868872777 0  -1.937166322641164 0.4973797728345091 0  -1.964574501674144 0.3747626280351212 0  -1.984229402724637 0.2506664663712131 0  -1.996053456879722 0.1255810386902028 0  -1.996053456837716 -0.1255810393578731 0  -1.984229402555223 -0.2506664677122601 0  -1.964574501275595 -0.3747626301243862 0  -1.937166321927573 -0.4973797756137629 0  -1.902113032058523 -0.6180339903865582 0  -1.859552970992176 -0.7362491073503388 0  -1.809654103857358 -0.8515585854139588 0  -1.752613358719046 -0.9635073506930532 0  -1.68865584926965 -1.071653592690939 0  -1.618033986646649 -1.175570507479816 0  -1.541026482962232 -1.274847982627361 0  -1.457937251802713 -1.369094215094766 0  -1.369094208649911 -1.457937257854835 0  -1.274847976447934 -1.541026488074299 0  -1.175570501763435 -1.618033990799842 0  -1.071653587205369 -1.688655852750899 0  -0.9635073455924 -1.752613361523153 0  -0.8515585806796591 -1.80965410608515 0  -0.7362491032109458 -1.859552972631078 0  -0.6180339868872777 -1.902113033195508 0  -0.4973797728345091 -1.937166322641164 0  -0.3747626280351212 -1.964574501674144 0  -0.2506664663712131 -1.984229402724637 0  -0.1255810386902028 -1.996053456879722 0  0.1255810393578731 -1.996053456837716 0  0.2506664677122601 -1.984229402555223 0  0.3747626301243862 -1.964574501275595 0  0.4973797756137629 -1.937166321927573 0  0.6180339903865582 -1.902113032058523 0  0.7362491073503388 -1.859552970992176 0  0.8515585854139588 -1.809654103857358 0  0.9635073506930532 -1.752613358719046 0  1.071653592690939 -1.68865584926965 0  1.175570507479816 -1.618033986646649 0  1.274847982627361 -1.541026482962232 0  1.369094215094766 -1.457937251802713 0  1.457937257854835 -1.369094208649911 0  1.541026488074299 -1.274847976447934 0  1.618033990799842 -1.175570501763435 0  1.688655852750899 -1.071653587205369 0  1.752613361523153 -0.9635073455924 0  1.80965410608515 -0.8515585806796591 0  1.859552972631078 -0.7362491032109458 0  1.902113033195508 -0.6180339868872777 0  1.937166322641164 -0.4973797728345091 0  1.964574501674144 -0.3747626280351212 0  1.984229402724637 -0.2506664663712131 0  1.996053456879722 -0.1255810386902028 0  0 1.875000000000347 0  0 1.750000000000694 0  0 1.625000000001042 0  0 1.500000000001389 0  0 1.375000000001736 0  0 1.250000000002083 0  0 1.125000000002431 0  0 1.000000000002778 0  0 0.8750000000031248 0  0 0.7500000000034714 0  0 0.6250000000038181 0  0 0.5000000000041651 0  0 0.3750000000045119 0  0 0.2500000000048588 0  0 0.1250000000052054 0  0 5.509148692794952e-12 0  0 -0.1249999999947944 0  0 -0.2499999999951412 0  0 -0.3749999999954885 0  0 -0.4999999999958358 0  0 -0.6249999999961826 0  0 -0.7499999999965299 0  0 -0.8749999999968767 0  0 -0.9999999999972236 0  0 -1.124999999997571 0  0 -1.249999999997918 0  0 -1.374999999998265 0  0 -1.499999999998612 0  0 -1.624999999998959 0  0 -1.749999999999306 0  0 -1.874999999999653 0  0.1082566336411304 -0.06249721138958328 0  1.769978925506156 0.6331774562186441 0  1.903135250199003 -0.0421944281877976 0  1.792767445305666 -0.6282195673649206 0  0.1078956266195906 0.4379732200456621 0  0.1081271557368096 -0.5626689135955911 0  1.497668507878613 1.144813795188484 0  1.495381822911744 -1.145186948587215 0  0.1077698321064012 0.9381801610794744 0  1.157591104880423 -1.496075542580389 0  1.15761904203644 1.496061189440118 0  0.107575378454425 -0.9379662415906492 0  0.1074881112432003 1.313364166073589 0  0.1073778204410697 -1.313431641428223 0  0.8581342293190556 1.6841832595155 0  0.8581342337129338 -1.684183256634205 0  1.851368580255463 0.2906826398251708 0  0.5249232492507638 1.815716715781448 0  0.5247778178913532 -1.815859379803398 0  0.1082353668846179 -0.3125509518049559 0  0.1080661273743536 0.1877645712619083 0  0.1078389931990292 0.6880769333414208 0  0.1073280526202888 1.563564970749537 0  0.107160679408544 -1.563615704201531 0  1.331581140402051 1.343190159103474 0  1.626802386652038 -0.9547108573666147 0  1.331552991861951 -1.343226601516206 0  1.631290071630766 0.9577989114228483 0  1.84669162712044 -0.4306457728829043 0  0.2975456488863658 1.873063487819802 0  0.2974751810617229 -1.873107343544094 0  0.09992055001738553 1.810702223800652 0  0.09984374948150972 -1.810705277930003 0  0.1082634647023108 -0.1875124211170647 0  0.2165510801728112 -0.1250032029974569 0  0.2165375172674545 4.221557482128871e-05 0  0.3248562165324149 -0.06247441291907704 0  0.3248585342277372 -0.1875624957204239 0  0.4332059573819909 -0.1250129595067874 0  0.4331985536034745 -0.250149813714412 0  0.5415852610461236 -0.1875723568446455 0  0.5415782023182074 -0.06241747692835881 0  0.5415829075105126 -0.3127317546530641 0  0.6499951624913161 -0.1249882924353291 0  0.6499156431939851 0.0003411059576302356 0  0.7584280238324674 -0.0623683986668593 0  0.7583381724307633 0.06301562139675367 0  0.8668942700507976 0.0002683876425051863 0  0.866904510818723 -0.1250308766382796 0  0.8668767636421114 0.1255591576030338 0  0.9754116371444833 0.0628928043742497 0  0.9754021224577029 0.1881893631214195 0  0.8668629130281992 0.2508426644318986 0  0.9753569972839978 0.3135148713980606 0  0.866839831793855 0.3761708347018111 0  0.9753431037724689 0.4388429871445935 0  0.866814648621348 0.5015010374276645 0  1.08393778919224 0.1255687039628436 0  0.9753369371520746 0.5641756407549315 0  0.8667849648470651 0.6268301269324548 0  0.9753189275771859 0.6895148186252987 0  0.8667545615587615 0.7521740478557806 0  1.08385809393457 0.5015670232038342 0  0.758249404512794 0.5641705835239291 0  0.975302017944805 0.814871697805804 0  0.8667237648340388 0.8775175004498103 0  0.7581711938478721 0.8148596678356821 0  0.758152425351844 0.9401730681893621 0  0.8666825215745161 1.002861206150922 0  0.7581094324766745 1.065502470213594 0  0.758328044826707 0.3134677110852433 0  1.083954067831041 0.0001938695472883667 0  1.19252231816974 0.06290459522933686 0  1.19252567041104 -0.06251801314282313 0  1.301128126712873 0.0001827802610413903 0  1.301130552695204 -0.1252317881558162 0  1.301115330419242 0.1256342297122375 0  1.192511328347185 -0.1879356955324901 0  1.301122730134966 -0.2506554158895156 0  1.192479750429495 -0.3133640044251623 0  1.301109212144929 -0.376083371131565 0  1.192456591795897 -0.4387979527390329 0  1.301099955648029 -0.5015268693521127 0  1.192451042906288 -0.5642305205519469 0  1.083808608024566 -0.5015171362738394 0  1.083797611734733 -0.6269374026706226 0  1.192424372222687 -0.6896688318832552 0  1.083773414310783 -0.7523626977114914 0  0.9751635753458996 -0.6896283291284873 0  0.9751313738428584 -0.8150333902436167 0  0.8665379607358412 -0.7522956549768351 0  0.866507412012517 -0.8776920507112558 0  0.7579364824946339 -0.8149685185678733 0  0.7579105028675454 -0.9403375519043209 0  0.8664591563359163 -1.003063911606668 0  0.7578566498173244 -1.06570761780405 0  0.3248448173131987 0.06260863083124135 0  1.083893067089233 0.7522053392182682 0  0.6495916017573917 1.002804704420728 0  0.6495390695087485 1.128124720958234 0  0.6493286086035562 -1.002983876189425 0  0.6492444751237343 -1.12835303640501 0  1.083873907579097 0.8776032265043791 0  1.083719561562728 -0.8777731949711265 0  0.7580709241722678 1.190851653093661 0  0.649469894045057 1.253474513631031 0  0.7578032938091362 -1.191084253213334 0  0.6491623390451466 -1.253731681537431 0  1.409747204836514 -0.1879373177366649 0  1.40975761403562 0.06289241900658486 0  1.409749567615142 0.1883618295687293 0  1.192505181992844 0.8149134925192071 0  0.54105335710638 1.065408377512265 0  0.5411037179786489 0.9401445256473224 0  0.5407475291886857 -1.065617554551859 0  0.5408198401311859 -0.9403086694595302 0  0.8665959699553137 -0.6267497636797308 0  1.409760301898612 -0.4388112271479134 0  1.409753025387469 -0.5642873312765931 0  1.518426999819115 0.1256101644706334 0  1.518414924029519 0.2511054618769016 0  1.409727051028622 0.3138377764034209 0  0.4331763451889839 -0.3753049428747806 0  0.5415217642104331 -0.4379040554119423 0  0.4331118399901733 -0.5004930698386724 0  0.649839
[...]
<PointData  Vectors="f_257-0"> 
<DataArray  type="Float64"  Name="f_257-0"  NumberOfComponents="3" format="ascii">0.0000000000000000e+00 0.0000000000000000e+00 0.0000000000000000e+00  0.0000000000000000e+00 -1.8807511009964844e-02 0.0000000000000000e+00  -1.5454246166202319e-02 0.0000000000000000e+00 0.0000000000000000e+00  0.0000000000000000e+00 -8.9539700379982056e-03 0.0000000000000000e+00  -3.9436137477157776e-03 0.0000000000000000e+00 0.0000000000000000e+00  -5.9856001046591110e-03 0.0000000000000000e+00 0.0000000000000000e+00  -7.4734789615580610e-03 0.0000000000000000e+00 0.0000000000000000e+00  -8.6686370821800300e-03 0.0000000000000000e+00 0.0000000000000000e+00  -9.6786690115363977e-03 0.0000000000000000e+00 0.0000000000000000e+00  -1.0557847582127649e-02 0.0000000000000000e+00 0.0000000000000000e+00  -1.1313307588289065e-02 0.0000000000000000e+00 0.0000000000000000e+00  -1.1973443812585246e-02 0.0000000000000000e+00 0.0000000000000000e+00  -1.2556740353274982e-02 0.0000000000000000e+00 0.0000000000000000e+00  -1.3058045127844961e-02 0.0000000000000000e+00 0.0000000000000000e+00  -1.3496696360644031e-02 0.0000000000000000e+00 0.0000000000000000e+00  -1.3868575194700803e-02 0.0000000000000000e+00 0.0000000000000000e+00  -1.4183434013682389e-02 0.0000000000000000e+00 0.0000000000000000e+00  -1.4441126693575902e-02 0.0000000000000000e+00 0.0000000000000000e+00  -1.4649677740848058e-02 0.0000000000000000e+00 0.0000000000000000e+00  -1.4817527955613438e-02 0.0000000000000000e+00 0.0000000000000000e+00  -1.4927788690368553e-02 0.0000000000000000e+00 0.0000000000000000e+00  -1.5008477788734228e-02 0.0000000000000000e+00 0.0000000000000000e+00  -1.5061048146836864e-02 0.0000000000000000e+00 0.0000000000000000e+00  -1.5085870872364592e-02 0.0000000000000000e+00 0.0000000000000000e+00  -1.5093547848619869e-02 0.0000000000000000e+00 0.0000000000000000e+00  -1.5098881098689882e-02 0.0000000000000000e+00 0.0000000000000000e+00  -1.5116712946895561e-02 0.0000000000000000e+00 0.0000000000000000e+00  -1.5191188974110759e-02 0.0000000000000000e+00 0.0000000000000000e+00  -1.6067028847611291e-02 -5.0951299466089218e-03 0.0000000000000000e+00  -1.5696137339839340e-02 -7.7588150624875911e-03 0.0000000000000000e+00  -1.5112048530799832e-02 -9.7998081688435851e-03 0.0000000000000000e+00  -1.4434076024443750e-02 -1.1437414042208089e-02 0.0000000000000000e+00  -1.3724016941302822e-02 -1.2806059544909664e-02 0.0000000000000000e+00  -1.2991576328921239e-02 -1.3989883278225503e-02 0.0000000000000000e+00  -1.2239089440255981e-02 -1.5015631826120012e-02 0.0000000000000000e+00  -1.1452500201581879e-02 -1.5907324859119713e-02 0.0000000000000000e+00  -1.0635573122164673e-02 -1.6690489387175479e-02 0.0000000000000000e+00  -9.8369888334840765e-03 -1.7340080362714505e-02 0.0000000000000000e+00  -9.0314058198302221e-03 -1.7924779208872650e-02 0.0000000000000000e+00  -8.2269788926609740e-03 -1.8404456681389968e-02 0.0000000000000000e+00  -7.4357134073646395e-03 -1.8801577279306935e-02 0.0000000000000000e+00  -6.6529272014237383e-03 -1.9121075437820215e-02 0.0000000000000000e+00  -5.8953073844682609e-03 -1.9364374871826656e-02 0.0000000000000000e+00  -5.1455501900527240e-03 -1.9533611744033310e-02 0.0000000000000000e+00  -4.4340157784618379e-03 -1.9644718907586324e-02 0.0000000000000000e+00  -3.7486608090141625e-03 -1.9683726939812286e-02 0.0000000000000000e+00  -3.1015946222514653e-03 -1.9682978493371080e-02 0.0000000000000000e+00  -2.5060305011177291e-03 -1.9621114670273120e-02 0.0000000000000000e+00  -1.9500335141663014e-03 -1.9512075256713547e-02 0.0000000000000000e+00  -1.4403180396506739e-03 -1.9378124030617280e-02 0.0000000000000000e+00  -9.8943302789831328e-04 -1.9225490692828570e-02 0.0000000000000000e+00  -6.0354541519804579e-04 -1.9070331721960078e-02 0.0000000000000000e+00  0.0000000000000000e+00 -1.8450343706369179e-02 0.0000000000000000e+00  0.0000000000000000e+00 -1.8176756653880553e-02 0.0000000000000000e+00  0.0000000000000000e+00 -1.7925483683994423e-02 0.0000000000000000e+00  0.0000000000000000e+00 -1.7680580985170894e-02 0.0000000000000000e+00  0.0000000000000000e+00 -1.7439313285998945e-02 0.0000000000000000e+00  0.0000000000000000e+00 -1.7186809146404667e-02 0.0000000000000000e+00  0.0000000000000000e+00 -1.6917980258278197e-02 0.0000000000000000e+00  0.0000000000000000e+00 -1.6638380464681780e-02 0.0000000000000000e+00  0.0000000000000000e+00 -1.6338065057563696e-02 0.0000000000000000e+00  0.0000000000000000e+00 -1.6021416748516565e-02 0.0000000000000000e+00  0.0000000000000000e+00 -1.5684123559440419e-02 0.0000000000000000e+00  0.0000000000000000e+00 -1.5327105636347668e-02 0.0000000000000000e+00  0.0000000000000000e+00 -1.4949385954289643e-02 0.0000000000000000e+00  0.0000000000000000e+00 -1.4552129540652728e-02 0.0000000000000000e+00  0.0000000000000000e+00 -1.4132261061053050e-02 0.0000000000000000e+00  0.0000000000000000e+00 -1.3697053457220380e-02 0.0000000000000000e+00  0.0000000000000000e+00 -1.3239946768514865e-02 0.0000000000000000e+00  0.0000000000000000e+00 -1.2765101727491323e-02 0.0000000000000000e+00  0.0000000000000000e+00 -1.2271010153765347e-02 0.0000000000000000e+00  0.0000000000000000e+00 -1.1759741772606145e-02 0.0000000000000000e+00  0.0000000000000000e+00 -1.1231900633358818e-02 0.0000000000000000e+00  0.0000000000000000e+00 -1.0687289249289380e-02 0.0000000000000000e+00  0.0000000000000000e+00 -1.0125946699527896e-02 0.0000000000000000e+00  0.0000000000000000e+00 -9.5493971566556896e-03 0.0000000000000000e+00  0.0000000000000000e+00 -8.5793657223289781e-03 0.0000000000000000e+00  0.0000000000000000e+00 -8.1909994768667171e-03 0.0000000000000000e+00  0.0000000000000000e+00 -7.7947497739149140e-03 0.0000000000000000e+00  0.0000000000000000e+00 -7.3923828774570691e-03 0.0000000000000000e+00  0.0000000000000000e+00 -6.9873502578933020e-03 0.0000000000000000e+00  0.0000000000000000e+00 -6.5813448235799068e-03 0.0000000000000000e+00  0.0000000000000000e+00 -6.1768021573720784e-03 0.0000000000000000e+00  0.0000000000000000e+00 -5.7771572288377628e-03 0.0000000000000000e+00  0.0000000000000000e+00 -5.3809931689793858e-03 0.0000000000000000e+00  0.0000000000000000e+00 -4.9953781013572333e-03 0.0000000000000000e+00  0.0000000000000000e+00 -4.6148999517512980e-03 0.0000000000000000e+00  0.0000000000000000e+00 -4.2462281860964545e-03 0.0000000000000000e+00  0.0000000000000000e+00 -3.8880100885132713e-03 0.0000000000000000e+00  0.0000000000000000e+00 -3.5423765648267738e-03 0.0000000000000000e+00  0.0000000000000000e+00 -3.2095782210792585e-03 0.0000000000000000e+00  0.0000000000000000e+00 -2.8913000670416733e-03 0.0000000000000000e+00  0.0000000000000000e+00 -2.5856211557156949e-03 0.0000000000000000e+00  0.0000000000000000e+00 -2.2947936178640471e-03 0.0000000000000000e+00  0.0000000000000000e+00 -2.0156235658745116e-03 0.0000000000000000e+00  0.0000000000000000e+00 -1.7461265409205271e-03 0.0000000000000000e+00  0.0000000000000000e+00 -1.4753448739222518e-03 0.0000000000000000e+00  0.0000000000000000e+00 -1.1897965604076560e-03 0.0000000000000000e+00  0.0000000000000000e+00 -8.7467118433125126e-04 0.0000000000000000e+00  0.0000000000000000e+00 -5.3258120076406094e-04 0.0000000000000000e+00  -1.3976353252599693e-02 -1.9915480454274648e-03 0.0000000000000000e+00  -1.2951696064388854e-02 -3.2700171078700931e-03 0.0000000000000000e+00  -1.2060666510061340e-02 -4.2313842804829471e-03 0.0000000000000000e+00  -1.1230600239085906e-02 -5.0142785766123512e-03 0.0000000000000000e+00  -1.0440108183580724e-02 -5.6765635257618784e-03 0.0000000000000000e+00  -9.6740602899042689e-03 -6.2471061850958541e-03 0.0000000000000000e+00  -8.9259842041801152e-03 -6.7442138477726982e-03 0.0000000000000000e+00  -8.1927949498051232e-03 -7.1797335558329897e-03 0.0000000000000000e+00  -7.4741089449598033e-03 -7.5616071421170435e-03 0.0000000000000000e+00  -6.7711503090856860e-03 -7.8951479493189584e-03 0.0000000000000000e+00  -6.0862637608148969e-03 -8.1840279771098912e-03 0.0000000000000000e+00  -5.4228654677437697e-03 -8.4310426228768765e-03 0.0000000000000000e+00  -4.7848003101893053e-03 -8.6384157460316618e-03 0.0000000000000000e+00  -4.1762954292977683e-03 -8.8083580734563526e-03 0.0000000000000000e+00  -3.6016060180046874e-03 -8.9432779156123961e-03 0.0000000000000000e+00  -3.0646301327459575e-03 -9.0458614640043355e-03 0.0000000000000000e+00  -2.5688020711642666e-03 -9.1192212751905442e-03 0.0000000000000000e+00  -2.1168188278175475e-03 -9.1668374245778214e-03 0.0000000000000000e+00  -1.7104450998535214e-03 -9.1924414102651109e-03 0.0000000000000000e+00  -1.3504744344252368e-03 -9.1998812786441373e-03 0.0000000000000000e+00  -1.0367338594857078e-03 -9.1930107245734496e-03 0.0000000000000000e+00  -7.6817390344358137e-04 -9.1754621745076866e-03 0.0000000000000000e+00  -5.4299047953404326e-04 -9.1505969098735120e-03 0.0000000000000000e+00  -3.5868021172006319e-04 -9.1213416008977342e-03 0.0000000000000000e+00  -2.1246391441275572e-04 -9.0902363123577853e-03 0.0000000000000000e+00  -1.0129020401466566e-04 -9.0593680352454471e-03 0.0000000000000000e+00  -2.1961776342757027e-05 -9.0304264928839344e-03 0.0000000000000000e+00  2.8630700296123406e-05 -9.0047549773392757e-03 0.0000000000000000e+00  5.3402229844879248e-05 -8.9834037736231716e-03 0.0000000000000000e+00  5.5281299253363004e-05 -8.9673844854906860e-03 0.0000000000000000e+00  3.6494307278828284e-05 -8.9570763452406187e-03 0.0000000000000000e+00  -2.9088535454414410e-03 -8.5620397421119696e-03 0.0000000000000000e+00  -9.6735799403747363e-03 -7.5688567564826162e-04 0.0000000000000000e+00  -6.9721486148512850e-04 -1.0337194601109723e-03 0.0000000000000000e+00  -8.7939673242728235e-05 -2.0616850274778114e-03 0.0000000000000000e+00  -5.3004403092679134e-03 -7.9476615672594824e-03 0.0000000000000000e+00  -1.2154153623593240e-03 -8.7323687043664791e-03 0.0000000000000000e+00  -1.2756863227392097e-02 -5.5639680345850916e-04 0.0000000000000000e+00  -1.5884648284491636e-05 -3.5554165011919443e-03 0.0000000000000000e+00  -8.1328484035951068e-03 -6.6882303418241322e-03 0.0000000000000000e+00  1.4874563110915680e-05 -4.9635878622730648e-03 0.0000000000000000e+00  -1.4097234911688137e-02 -4.9924108377482550e-04 0.0000000000000000e+00  -4.4837765546104565e-04 -8.7145750234330337e-03 0.0000000000000000e+00  -1.0420397927792532e-02 -5.1686302799055939e-03 0.0000000000000000e+00  -5.2897463027226903e-05 -8.6639484643154987e-03 0.0000000000000000e+00  -1.4534026790740685e-02 -5.2203160528037232e-04 0.0000000000000000e+00  2.6253029778932962e-05 -6.0888813295750417e-03 0.0000000000000000e+00  -6.3804692095731927e-03 -1.1629477829298645e-03 0.0000000000000000e+00  -1.4678654197176285e-02 -5.7903277567799823e-04 0.0000000000000000e+00  3.2645554905664675e-05 -7.2657077024643217e-03 0.0000000000000000e+00  -1.9651259817112287e-03 -8.6878242239124652e-03 0.0000000000000000e+00  -4.0312422575529182e-03 -8.3244952183610839e-03 0.0000000000000000e+00  -6.6788354501461167e-03 -7.4097102591483442e-03 0.0000000000000000e+00  -1.2049526693285085e-02 -3.7205970504028897e-03 0.0000000000000000e+00  4.8139454338320270e-05 -8.6388099608688332e-03 0.0000000000000000e+00  -1.3590512337184672e-02 -5.0626734950314205e-04 0.0000000000000000e+00  -3.9277575504850308e-05 -2.9455350561014460e-03 0.0000000000000000e+00  3.0302340168272369e-06 -4.2660861810318923e-03 0.0000000000000000e+00  -1.1813287887160911e-02 -5.6111508328279033e-04 0.0000000000000000e+00  -1.5450996111058917e-04 -1.6385081074176821e-03 0.0000000000000000e+00  -1.4723488804969462e-02 -6.4252693656811498e-04 0.0000000000000000e+00  3.2752148436377584e-05 -8.0255666060173470e-03 0.0000000000000000e+00  -1.3867359019499747e-02 -1.7720838282042027e-03 0.0000000000000000e+00  4.9560962804258113e-05 -8.6526422750863221e-03 0.0000000000000000e+00  -2.4133806146558420e-03 -8.6370459583450573e-03 0.0000000000000000e+00  -2.7399277916818807e-03 -8.1073004844544033e-03 0.0000000000000000e+00  -3.2816368278189099e-03 -8.0075600348529594e-03 0.0000000000000000e+00  -3.0960565185818210e-03 -7.5823978781276950e-03 0.0000000000000000e+00  -2.5552069742743808e-03 -7.6748973983926825e-03 0.0000000000000000e+00  -2.8897482930019857e-03 -7.1761432939576007e-03 0.0000000000000000e+00  -2.3531131364864333e-03 -7.2580663994558578e-03 0.0000000000000000e+00  -2.6608509610963863e-03 -6.7818034621519386e-03 0.0000000000000000e+00  -3.2507847429354333e-03 -6.6875445694508026e-03 0.0000000000000000e+00  -2.1330729867276815e-03 -6.8504469139728059e-03 0.0000000000000000e+00  -2.9910239173663341e-03 -6.3167423961865924e-03 0.0000000000000000e+00  -3.6398334511604678e-03 -6.2118240282522958e-03 0.0000000000000000e+00  -3.3448177397354928e-03 -5.8650543168608394e-03 0.0000000000000000e+00  -4.0572892264697288e-03 -5.7500208462564718e-03 0.0000000000000000e+00  -3.7242572857712247e-03 -5.4275526085491082e-03 0.0000000000000000e+00  -3.0130436865746517e-03 -5.5138354251688740e-03 0.0000000000000000e+00  -4.5054470801992310e-03 -5.3014611672578876e-03 0.0000000000000000e+00  -4.1329424306226093e-03 -5.0031265605101046e-03 0.0000000000000000e+00  -4.9897661639952962e-03 -4.8631654872128222e-03 0.0000000000000000e+00  -5.3420655055461865e-03 -5.1289856567569743e-03 0.0000000000000000e+00  -5.8958233776614478e-03 -4.6699303079202961e-03 0.0000000000000000e+00  -6.2176101223251762e-03 -4.9071163902289616e-03 0.0000000000000000e+00  -6.8289167833900247e-03 -4.4230001390204382e-03 0.0000000000000000e+00  -7.1145664338860184e-03 -4.6365126296151601e-03 0.0000000000000000e+00  -4.5775313851875530e-03 -4.5878911773357340e-03 0.0000000000000000e+00  -7.7684117420829648e-03 -4.1267594462467607e-03 0.0000000000000000e+00  -8.0172516134549236e-03 -4.3207016139592156e-03 0.0000000000000000e+00  -8.6973676227505223e-03 -3.7882348707802480e-03 0.0000000000000000e+00  -8.9129057831788521e-03 -3.9646714688530496e-03 0.0000000000000000e+00  -7.4758897751439164e-03 -3.9309569835763768e-03 0.0000000000000000e+00  -7.3559225321040474e-03 -4.8544265277629985e-03 0.0000000000000000e+00  -9.6036378026623410e-03 -3.4147831440890755e-03 0.0000000000000000e+00  -9.7917272273573934e-03 -3.5737816982292117e-03 0.0000000000000000e+00  -9.0966205064819516e-03 -4.1427938894056555e-03 0.0000000000000000e+00  -9.9535074604072803e-03 -3.7308750745722575e-03 0.0000000000000000e+00  -1.0646485882908925e-02 -3.1528172169192200e-03 0.0000000000000000e+00  -1.0792750918341330e-02 -3.2861287760848732e-03 0.0000000000000000e+00  -5.6421549260432767e-03 -5.3940355267986916e-03 0.0000000000000000e+00  -3.7034519933627969e-03 -4.6896528482574650e-03 0.0000000000000000e+00  -4.0955167081756843e-03 -4.2926413995964807e-03 0.0000000000000000e+00  -3.2125386036317093e-03 -4.3493711470699980e-03 0.0000000000000000e+00  -3.5338501214249949e-03 -3.9637244704080112e-03 0.0000000000000000e+00  -2.6594306484425327e-03 -3.9682946384658434e-03 0.0000000000000000e+00  -4.5352451967078733e-03 -3.8949662141644866e-03 0.0000000000000000e+00  -2.4469040844902158e-03 -4.3616334236403253e-03 0.0000000000000000e+00  -1.9398194810715706e-03 -3.9404888261650780e-03 0.0000000000000000e+00  -1.8124720250642771e-03 -4.3529219528990930e-03 0.0000000000000000e+00  -1.3785138699813357e-03 -3.9124636626345598e-03 0.0000000000000000e+00  -1.3073803897274082e-03 -4.3444513794380192e-03 0.0000000000000000e+00  -9.5657885192672884e-04 -3.9045678264048086e-03 0.0000000000000000e+00  -9.1675119947714958e-04 -4.3497695139893527e-03 0.0000000000000000e+00  -1.2168158625684110e-03 -4.7779757324493957e-03 0.0000000000000000e+00  -8.5651522698043040e-04 -4.7933193353551168e-03 0.0000000000000000e+00  -6.2014569175400077e-04 -4.3739912196669953e-03 0.0000000000000000e+00  -5.7825876209707957e-04 -4.8219290535835560e-03 0.0000000000000000e+00  -7.8214649283482476e-04 -5.2368577696579530e-03 0.0000000000000000e+00  -5.2389164208912673e-04 -5.2681696925666365e-03 0.0000000000000000e+00  -6.9874769446179015e-04 -5.6809268693237486e-03 0.0000000000000000e+00  -4.6135778740237233e-04 -5.7129241108122260e-03 0.0000000000000000e+00  -6.1045567403216611e-04 -6.1250032587938730e-03 0.0000000000000000e+00  -3.9444219241100505e-04 -6.1555509115589786e-03 0.0000000000000000e+00  -2.8025824275156524e-04 -5.7519280505084229e-03 0.0000000000000000e+00  -2.2996122354680687e-04 -6.1909261512158170e-03 0.0000000000000000e+00  -3.6869255275185559e-03 -7.4601901567006145e-03 0.0000000000000000e+00  -9.3864540056774644e-03 -3.2484577307284224e-03 0.0000000000000000e+00  -1.0090548969558112e-02 -3.8923197423379853e-03 0.0000000000000000e+00  -1.0918619002283326e-02 -3.4187028535799784e-03 0.0000000000000000e+00  -3.2635569232530832e-04 -6.5948563621812352e-03 0.0000000000000000e+00  -1.7911766861915246e-04 -6.6251957352561012e-03 0.0000000000000000e+00  -1.0288181016315861e-02 -2.8614490389795885e-03 0.0000000000000000e+00  -3.6781770422600893e-04 -4.8643050052349446e-03 0.0000000000000000e+00  -1.1608586170431404e-02 -2.8117455509651139e-03 0.0000000000000000e+00  -1.1730219959810760e-02 -2.9104379498521515e-03 0.0000000000000000e+00  -1.1011348146255885e-04 -6.2312980058083006e-03 0.0000000000000000e+00  -7.3300352103249206e-05 -6.6591426532587985e-03 0.0000000000000000e+00  -2.0538325687283173e-03 -3.5318274769622934e-03 0.0000000000000000e+00  -3.9007100358369531e-03 -3.5775491076064422e-03 0.0000000000000000e+00  -5.0451855677475970e-03 -3.4775087896988291e-03 0.0000000000000000e+00  -1.0071543296412529e-02 -2.6933422273469521e-03 0.0000000000000000e+00  -1.0203926640256430e-02 -4.0657694513559382e-03 0.0000000000000000e+00  -9.3787671849960112e-03 -4.5304349287193539e-03 0.0000000000000000e+00  -2.5989532951322200e-04 -7.0291311320472725e-03 0.0000000000000000e+00  -4.3321623382615982e-04 -7.0074742716149264e-03 0.0000000000000000e+00  -1.0016415033927632e-03 -5.6546903692205998e-03 0.0000000000000000e+00  -9.6812444858384108e-04 -3.4543405563308375e-03 0.0000000000000000e+00  -6.4484204685404285e-04 -3.4672575423616322e-03 0.0000000000000000e+00  -4.3479172978374636e-03 -3.1695245115338621e-03 0.0000000000000000e+00  -5.6590359825028323e-03 -3.0022284806766396e-03 0.0000000000000000e+00  -6.2427193359292886e-03 -3.2717185501959980e-03 0.0000000000000000e+00  -1.8752055186676789e-03 -7.3172066148957035e-03 0.0000000000000000e+00  -1.6698231092928497e-03 -6.8997412479419899e-03 0.0000000000000000e+00  -1.4572576371248318e-03 -7.3589505807453602e-03 0.0000000000000000e+00  -1.8952599407473210e-03 -6.4469988630920039e-03 0.0000000000000000e+00  -1.0952675307970547e-02 -2.2980924861682847e-03 0.0000000000000000e+00  -1.2394058259263907e-02 -2.3115656276985305e-03 0.0000000000000000e+00  -1.2518391657978601e-02 -2.3711618764311140e-03 0.0000000000000000e+00  -1.1836294453458207e-02 -3.0082318459452042e-03 0.0000000000000000e+00  -1.2259429986522474e-02 -2.2360835075654435e-03 0.0000000000000000e+00  -1.2632894588356390e-02 -2.4205360673858968e-03 0.0000000000000000e+00  -2.8700493499639065e-05 -6.2764592828141903e-03 0.0000000000000000e+00  -3.4739961586614581e-06 -6.6966837699508229e-03 0.0000000000000000e+00  -3.8765687636419430e-05 -7.0794639360838010e-03 0.0000000000000000e+00  -5.5100506956658115e-05 -5.8497075672612683e-03 0.0000000000000000e+00  1.8847445449503856e-05 -7.1088606594535949e-03 0.0000000000000000e+00  -6.9530639546037084e-03 -2.7204684960872891e-03 0.0000000000000000e+00  -7.4182796781398714e-03 -2.9829772167239040e-03 0.0000000000000000e+00  -1.0737288074025610e-02 -2.1171661758632460e-03 0.0000000000000000e+00  -1.2712470601595380e-03 -6.9351075950658788e-03 0.0000000000000000e+00  -1.0987829883213709e-03 -7.3879282751425010e-03 0.0000000000000000e+00  -9.4807926864027108e-03 -4.7572438985201406e-03 0.0000000000000000e+00  -8.6712500652761544e-03 -5.2033701280365333e-03 0.0000000000000000e+00  -1.1925815073723766e-02 -3.1137936609446542e-03 0.0000000000000000e+00  -1.2737585699672559e-02 -2.4643956936676770e-03 0.0000000000000000e+00  -3.5000129813136406e-04 -7.4416