<?xml version="1.0"?>
<VTKFile type="UnstructuredGrid"  version="0.1"  >
<UnstructuredGrid>
<Piece  NumberOfPoints="1000" NumberOfCells="1898">
<Points>
<DataArray  type="Float64"  NumberOfComponents="3"  format="ascii">2 0 0  -2 0 0  0 2 0  0 -2 0  1.996053456837716 0.1255810393578731 0  1.984229402555223 0.2506664677122601 0  1.964574501275595 0.3747626301243862 0  1.937166321927573 0.4973797756137629 0  1.902113032058523 0.6180339903865582 0  1.859552970992176 0.7362491073503388 0  1.809654103857358 0.8515585854139588 0  1.752613358719046 0.9635073506930532 0  1.68865584926965 1.071653592690939 0  1.618033986646649 1.175570507479816 0  1.541026482962232 1.274847982627361 0  1.457937251802713 1.369094215094766 0  1.369094208649911 1.457937257854835 0  1.274847976447934 1.541026488074299 0  1.175570501763435 1.618033990799842 0  1.071653587205369 1.688655852750899 0  0.9635073455924 1.752613361523153 0  0.8515585806796591 1.80965410608515 0  0.7362491032109458 1.859552972631078 0  0.6180339868872777 1.902113033195508 0  0.4973797728345091 1.937166322641164 0  0.3747626280351212 1.964574501674144 0  0.2506664663712131 1.984229402724637 0  0.1255810386902028 1.996053456879722 0  -0.1255810393578731 1.996053456837716 0  -0.2506664677122601 1.984229402555223 0  -0.3747626301243862 1.964574501275595 0  -0.4973797756137629 1.937166321927573 0  -0.6180339903865582 1.902113032058523 0  -0.7362491073503388 1.859552970992176 0  -0.8515585854139588 1.809654103857358 0  -0.9635073506930532 1.752613358719046 0  -1.071653592690939 1.68865584926965 0  -1.175570507479816 1.618033986646649 0  -1.274847982627361 1.541026482962232 0  -1.369094215094766 1.457937251802713 0  -1.457937257854835 1.369094208649911 0  -1.541026488074299 1.274847976447934 0  -1.618033990799842 1.175570501763435 0  -1.688655852750899 1.071653587205369 0  -1.752613361523153 0.9635073455924 0  -1.80965410608515 0.8515585806796591 0  -1.859552972631078 0.7362491032109458 0  -1.902113033195508 0.6180339868872777 0  -1.937166322641164 0.4973797728345091 0  -1.964574501674144 0.3747626280351212 0  -1.984229402724637 0.2506664663712131 0  -1.996053456879722 0.1255810386902028 0  -1.996053456837716 -0.1255810393578731 0  -1.984229402555223 -0.2506664677122601 0  -1.964574501275595 -0.3747626301243862 0  -1.937166321927573 -0.4973797756137629 0  -1.902113032058523 -0.6180339903865582 0  -1.859552970992176 -0.7362491073503388 0  -1.809654103857358 -0.8515585854139588 0  -1.752613358719046 -0.9635073506930532 0  -1.68865584926965 -1.071653592690939 0  -1.618033986646649 -1.175570507479816 0  -1.541026482962232 -1.274847982627361 0  -1.457937251802713 -1.369094215094766 0  -1.369094208649911 -1.457937257854835 0  -1.274847976447934 -1.541026488074299 0  -1.175570501763435 -1.618033990799842 0  -1.071653587205369 -1.688655852750899 0  -0.9635073455924 -1.752613361523153 0  -0.8515585806796591 -1.80965410608515 0  -0.7362491032109458 -1.859552972631078 0  -0.6180339868872777 -1.902113033195508 0  -0.4973797728345091 -1.937166322641164 0  -0.3747626280351212 -1.964574501674144 0  -0.2506664663712131 -1.984229402724637 0  -0.1255810386902028 -1.996053456879722 0  0.1255810393578731 -1.996053456837716 0  0.2506664677122601 -1.984229402555223 0  0.3747626301243862 -1.964574501275595 0  0.4973797756137629 -1.937166321927573 0  0.6180339903865582 -1.902113032058523 0  0.7362491073503388 -1.859552970992176 0  0.8515585854139588 -1.809654103857358 0  0.9635073506930532 -1.752613358719046 0  1.071653592690939 -1.68865584926965 0  1.175570507479816 -1.618033986646649 0  1.274847982627361 -1.541026482962232 0  1.369094215094766 -1.457937251802713 0  1.457937257854835 -1.369094208649911 0  1.541026488074299 -1.274847976447934 0  1.618033990799842 -1.175570501763435 0  1.688655852750899 -1.071653587205369 0  1.752613361523153 -0.9635073455924 0  1.80965410608515 -0.8515585806796591 0  1.859552972631078 -0.7362491032109458 0  1.902113033195508 -0.6180339868872777 0  1.937166322641164 -0.4973797728345091 0  1.964574501674144 -0.3747626280351212 0  1.984229402724637 -0.2506664663712131 0  1.996053456879722 -0.1255810386902028 0  0 1.875000000000347 0  0 1.750000000000694 0  0 1.625000000001042 0  0 1.500000000001389 0  0 1.375000000001736 0  0 1.250000000002083 0  0 1.125000000002431 0  0 1.000000000002778 0  0 0.8750000000031248 0  0 0.7500000000034714 0  0 0.6250000000038181 0  0 0.5000000000041651 0  0 0.3750000000045119 0  0 0.2500000000048588 0  0 0.1250000000052054 0  0 5.509148692794952e-12 0  0 -0.1249999999947944 0  0 -0.2499999999951412 0  0 -0.3749999999954885 0  0 -0.4999999999958358 0  0 -0.6249999999961826 0  0 -0.7499999999965299 0  0 -0.8749999999968767 0  0 -0.9999999999972236 0  0 -1.124999999997571 0  0 -1.249999999997918 0  0 -1.374999999998265 0  0 -1.499999999998612 0  0 -1.624999999998959 0  0 -1.749999999999306 0  0 -1.874999999999653 0  0.1082566336411304 -0.06249721138958328 0  1.769978925506156 0.6331774562186441 0  1.903135250199003 -0.0421944281877976 0  1.792767445305666 -0.6282195673649206 0  0.1078956266195906 0.4379732200456621 0  0.1081271557368096 -0.5626689135955911 0  1.497668507878613 1.144813795188484 0  1.495381822911744 -1.145186948587215 0  0.1077698321064012 0.9381801610794744 0  1.157591104880423 -1.496075542580389 0  1.15761904203644 1.496061189440118 0  0.107575378454425 -0.9379662415906492 0  0.1074881112432003 1.313364166073589 0  0.1073778204410697 -1.313431641428223 0  0.8581342293190556 1.6841832595155 0  0.8581342337129338 -1.684183256634205 0  1.851368580255463 0.2906826398251708 0  0.5249232492507638 1.815716715781448 0  0.5247778178913532 -1.815859379803398 0  0.1082353668846179 -0.3125509518049559 0  0.1080661273743536 0.1877645712619083 0  0.1078389931990292 0.6880769333414208 0  0.1073280526202888 1.563564970749537 0  0.107160679408544 -1.563615704201531 0  1.331581140402051 1.343190159103474 0  1.626802386652038 -0.9547108573666147 0  1.331552991861951 -1.343226601516206 0  1.631290071630766 0.9577989114228483 0  1.84669162712044 -0.4306457728829043 0  0.2975456488863658 1.873063487819802 0  0.2974751810617229 -1.873107343544094 0  0.09992055001738553 1.810702223800652 0  0.09984374948150972 -1.810705277930003 0  0.1082634647023108 -0.1875124211170647 0  0.2165510801728112 -0.1250032029974569 0  0.2165375172674545 4.221557482128871e-05 0  0.3248562165324149 -0.06247441291907704 0  0.3248585342277372 -0.1875624957204239 0  0.4332059573819909 -0.1250129595067874 0  0.4331985536034745 -0.250149813714412 0  0.5415852610461236 -0.1875723568446455 0  0.5415782023182074 -0.06241747692835881 0  0.5415829075105126 -0.3127317546530641 0  0.6499951624913161 -0.1249882924353291 0  0.6499156431939851 0.0003411059576302356 0  0.7584280238324674 -0.0623683986668593 0  0.7583381724307633 0.06301562139675367 0  0.8668942700507976 0.0002683876425051863 0  0.866904510818723 -0.1250308766382796 0  0.8668767636421114 0.1255591576030338 0  0.9754116371444833 0.0628928043742497 0  0.9754021224577029 0.1881893631214195 0  0.8668629130281992 0.2508426644318986 0  0.9753569972839978 0.3135148713980606 0  0.866839831793855 0.3761708347018111 0  0.9753431037724689 0.4388429871445935 0  0.866814648621348 0.5015010374276645 0  1.08393778919224 0.1255687039628436 0  0.9753369371520746 0.5641756407549315 0  0.8667849648470651 0.6268301269324548 0  0.9753189275771859 0.6895148186252987 0  0.8667545615587615 0.7521740478557806 0  1.08385809393457 0.5015670232038342 0  0.758249404512794 0.5641705835239291 0  0.975302017944805 0.814871697805804 0  0.8667237648340388 0.8775175004498103 0  0.7581711938478721 0.8148596678356821 0  0.758152425351844 0.9401730681893621 0  0.8666825215745161 1.002861206150922 0  0.7581094324766745 1.065502470213594 0  0.758328044826707 0.3134677110852433 0  1.083954067831041 0.0001938695472883667 0  1.19252231816974 0.06290459522933686 0  1.19252567041104 -0.06251801314282313 0  1.301128126712873 0.0001827802610413903 0  1.301130552695204 -0.1252317881558162 0  1.301115330419242 0.1256342297122375 0  1.192511328347185 -0.1879356955324901 0  1.301122730134966 -0.2506554158895156 0  1.192479750429495 -0.3133640044251623 0  1.301109212144929 -0.376083371131565 0  1.192456591795897 -0.4387979527390329 0  1.301099955648029 -0.5015268693521127 0  1.192451042906288 -0.5642305205519469 0  1.083808608024566 -0.5015171362738394 0  1.083797611734733 -0.6269374026706226 0  1.192424372222687 -0.6896688318832552 0  1.083773414310783 -0.7523626977114914 0  0.9751635753458996 -0.6896283291284873 0  0.9751313738428584 -0.8150333902436167 0  0.8665379607358412 -0.7522956549768351 0  0.866507412012517 -0.8776920507112558 0  0.7579364824946339 -0.8149685185678733 0  0.7579105028675454 -0.9403375519043209 0  0.8664591563359163 -1.003063911606668 0  0.7578566498173244 -1.06570761780405 0  0.3248448173131987 0.06260863083124135 0  1.083893067089233 0.7522053392182682 0  0.6495916017573917 1.002804704420728 0  0.6495390695087485 1.128124720958234 0  0.6493286086035562 -1.002983876189425 0  0.6492444751237343 -1.12835303640501 0  1.083873907579097 0.8776032265043791 0  1.083719561562728 -0.8777731949711265 0  0.7580709241722678 1.190851653093661 0  0.649469894045057 1.253474513631031 0  0.7578032938091362 -1.191084253213334 0  0.6491623390451466 -1.253731681537431 0  1.409747204836514 -0.1879373177366649 0  1.40975761403562 0.06289241900658486 0  1.409749567615142 0.1883618295687293 0  1.192505181992844 0.8149134925192071 0  0.54105335710638 1.065408377512265 0  0.5411037179786489 0.9401445256473224 0  0.5407475291886857 -1.065617554551859 0  0.5408198401311859 -0.9403086694595302 0  0.8665959699553137 -0.6267497636797308 0  1.409760301898612 -0.4388112271479134 0  1.409753025387469 -0.5642873312765931 0  1.518426999819115 0.1256101644706334 0  1.518414924029519 0.2511054618769016 0  1.409727051028622 0.3138377764034209 0  0.4331763451889839 -0.3753049428747806 0  0.5415217642104331 -0.4379040554119423 0  0.4331118399901733 -0.5004930698386724 0  0.649839
[...]
<PointData  Vectors="f_185-0"> 
<DataArray  type="Float64"  Name="f_185-0"  NumberOfComponents="3" format="ascii">0.0000000000000000e+00 0.0000000000000000e+00 0.0000000000000000e+00  0.0000000000000000e+00 -1.8758172911423638e-02 0.0000000000000000e+00  -1.5656966978500764e-02 0.0000000000000000e+00 0.0000000000000000e+00  0.0000000000000000e+00 -8.8525262169826847e-03 0.0000000000000000e+00  -4.0366238964400607e-03 0.0000000000000000e+00 0.0000000000000000e+00  -6.1264144664258087e-03 0.0000000000000000e+00 0.0000000000000000e+00  -7.6501871067974720e-03 0.0000000000000000e+00 0.0000000000000000e+00  -8.8743904512542035e-03 0.0000000000000000e+00 0.0000000000000000e+00  -9.9088606614138371e-03 0.0000000000000000e+00 0.0000000000000000e+00  -1.0807955072592610e-02 0.0000000000000000e+00 0.0000000000000000e+00  -1.1579000377778191e-02 0.0000000000000000e+00 0.0000000000000000e+00  -1.2251890215624672e-02 0.0000000000000000e+00 0.0000000000000000e+00  -1.2844583886087533e-02 0.0000000000000000e+00 0.0000000000000000e+00  -1.3352317273481115e-02 0.0000000000000000e+00 0.0000000000000000e+00  -1.3795307338603674e-02 0.0000000000000000e+00 0.0000000000000000e+00  -1.4168836251089226e-02 0.0000000000000000e+00 0.0000000000000000e+00  -1.4483291646019449e-02 0.0000000000000000e+00 0.0000000000000000e+00  -1.4738270596259932e-02 0.0000000000000000e+00 0.0000000000000000e+00  -1.4942636788703773e-02 0.0000000000000000e+00 0.0000000000000000e+00  -1.5104849889633778e-02 0.0000000000000000e+00 0.0000000000000000e+00  -1.5207289663349889e-02 0.0000000000000000e+00 0.0000000000000000e+00  -1.5279953167031084e-02 0.0000000000000000e+00 0.0000000000000000e+00  -1.5323892273090478e-02 0.0000000000000000e+00 0.0000000000000000e+00  -1.5339151950883596e-02 0.0000000000000000e+00 0.0000000000000000e+00  -1.5336350619320272e-02 0.0000000000000000e+00 0.0000000000000000e+00  -1.5330987481624984e-02 0.0000000000000000e+00 0.0000000000000000e+00  -1.5338476432733153e-02 0.0000000000000000e+00 0.0000000000000000e+00  -1.5402833068575084e-02 0.0000000000000000e+00 0.0000000000000000e+00  -1.6250093510962516e-02 -5.1255264583091702e-03 0.0000000000000000e+00  -1.5855909914622924e-02 -7.7921378659934377e-03 0.0000000000000000e+00  -1.5257109566194350e-02 -9.8276984642448259e-03 0.0000000000000000e+00  -1.4569006660246363e-02 -1.1460342707479190e-02 0.0000000000000000e+00  -1.3851592797469390e-02 -1.2825264542558997e-02 0.0000000000000000e+00  -1.3113430432378979e-02 -1.4007675077152155e-02 0.0000000000000000e+00  -1.2355470469487156e-02 -1.5033822674938553e-02 0.0000000000000000e+00  -1.1561345983012958e-02 -1.5924922765959779e-02 0.0000000000000000e+00  -1.0735859243082657e-02 -1.6709236074436685e-02 0.0000000000000000e+00  -9.9300265223380944e-03 -1.7357563900340017e-02 0.0000000000000000e+00  -9.1155970472749145e-03 -1.7942941193610815e-02 0.0000000000000000e+00  -8.3033981156946553e-03 -1.8420525005947475e-02 0.0000000000000000e+00  -7.5038455896283178e-03 -1.8816849468677035e-02 0.0000000000000000e+00  -6.7126438900252938e-03 -1.9135048668013622e-02 0.0000000000000000e+00  -5.9480582928869005e-03 -1.9376743521955214e-02 0.0000000000000000e+00  -5.1878118461041829e-03 -1.9542027771148839e-02 0.0000000000000000e+00  -4.4694325937690701e-03 -1.9650423461335286e-02 0.0000000000000000e+00  -3.7748867301427317e-03 -1.9683237392540794e-02 0.0000000000000000e+00  -3.1205077223515733e-03 -1.9679015349290764e-02 0.0000000000000000e+00  -2.5178339568563361e-03 -1.9610549358182888e-02 0.0000000000000000e+00  -1.9544449240433653e-03 -1.9491218089459528e-02 0.0000000000000000e+00  -1.4400117185116676e-03 -1.9348017002112760e-02 0.0000000000000000e+00  -9.8757715505756760e-04 -1.9186310028821291e-02 0.0000000000000000e+00  -6.0399048553408754e-04 -1.9024479409916275e-02 0.0000000000000000e+00  0.0000000000000000e+00 -1.8401788398743249e-02 0.0000000000000000e+00  0.0000000000000000e+00 -1.8130546027641841e-02 0.0000000000000000e+00  0.0000000000000000e+00 -1.7881768757672438e-02 0.0000000000000000e+00  0.0000000000000000e+00 -1.7638345911274209e-02 0.0000000000000000e+00  0.0000000000000000e+00 -1.7397852565461443e-02 0.0000000000000000e+00  0.0000000000000000e+00 -1.7145614815546682e-02 0.0000000000000000e+00  0.0000000000000000e+00 -1.6876488571695578e-02 0.0000000000000000e+00  0.0000000000000000e+00 -1.6596075819720564e-02 0.0000000000000000e+00  0.0000000000000000e+00 -1.6294577531316617e-02 0.0000000000000000e+00  0.0000000000000000e+00 -1.5976330766972149e-02 0.0000000000000000e+00  0.0000000000000000e+00 -1.5637110152722056e-02 0.0000000000000000e+00  0.0000000000000000e+00 -1.5277824293005277e-02 0.0000000000000000e+00  0.0000000000000000e+00 -1.4897522070335878e-02 0.0000000000000000e+00  0.0000000000000000e+00 -1.4497385548384777e-02 0.0000000000000000e+00  0.0000000000000000e+00 -1.4074350328573661e-02 0.0000000000000000e+00  0.0000000000000000e+00 -1.3635720733636817e-02 0.0000000000000000e+00  0.0000000000000000e+00 -1.3174941559253306e-02 0.0000000000000000e+00  0.0000000000000000e+00 -1.2696198985217689e-02 0.0000000000000000e+00  0.0000000000000000e+00 -1.2197987265154820e-02 0.0000000000000000e+00  0.0000000000000000e+00 -1.1682406593241868e-02 0.0000000000000000e+00  0.0000000000000000e+00 -1.1150068483902487e-02 0.0000000000000000e+00  0.0000000000000000e+00 -1.0600787598673070e-02 0.0000000000000000e+00  0.0000000000000000e+00 -1.0034609830560004e-02 0.0000000000000000e+00  0.0000000000000000e+00 -9.4530887285791815e-03 0.0000000000000000e+00  0.0000000000000000e+00 -8.4746262050192003e-03 0.0000000000000000e+00  0.0000000000000000e+00 -8.0828629265345623e-03 0.0000000000000000e+00  0.0000000000000000e+00 -7.6831720792864995e-03 0.0000000000000000e+00  0.0000000000000000e+00 -7.2773519334568748e-03 0.0000000000000000e+00  0.0000000000000000e+00 -6.8688924852829888e-03 0.0000000000000000e+00  0.0000000000000000e+00 -6.4595201190270788e-03 0.0000000000000000e+00  0.0000000000000000e+00 -6.0516991688790989e-03 0.0000000000000000e+00  0.0000000000000000e+00 -5.6489120960168280e-03 0.0000000000000000e+00  0.0000000000000000e+00 -5.2497644651568831e-03 0.0000000000000000e+00  0.0000000000000000e+00 -4.8613691614898058e-03 0.0000000000000000e+00  0.0000000000000000e+00 -4.4783868708673374e-03 0.0000000000000000e+00  0.0000000000000000e+00 -4.1075316835761880e-03 0.0000000000000000e+00  0.0000000000000000e+00 -3.7475398286160502e-03 0.0000000000000000e+00  0.0000000000000000e+00 -3.4006237766488622e-03 0.0000000000000000e+00  0.0000000000000000e+00 -3.0672163137352173e-03 0.0000000000000000e+00  0.0000000000000000e+00 -2.7489699071030836e-03 0.0000000000000000e+00  0.0000000000000000e+00 -2.4445108967632622e-03 0.0000000000000000e+00  0.0000000000000000e+00 -2.1559061228146846e-03 0.0000000000000000e+00  0.0000000000000000e+00 -1.8809543697949026e-03 0.0000000000000000e+00  0.0000000000000000e+00 -1.6181363402956424e-03 0.0000000000000000e+00  0.0000000000000000e+00 -1.3565724135389849e-03 0.0000000000000000e+00  0.0000000000000000e+00 -1.0844678888539080e-03 0.0000000000000000e+00  0.0000000000000000e+00 -7.8853615232921039e-04 0.0000000000000000e+00  0.0000000000000000e+00 -4.7552858625233950e-04 0.0000000000000000e+00  -1.4173608102603295e-02 -2.0024615402721201e-03 0.0000000000000000e+00  -1.3140618700602433e-02 -3.2749090464397686e-03 0.0000000000000000e+00  -1.2237374679971363e-02 -4.2246292716301200e-03 0.0000000000000000e+00  -1.1393172086562642e-02 -4.9935173884417183e-03 0.0000000000000000e+00  -1.0588040326640936e-02 -5.6412073311233307e-03 0.0000000000000000e+00  -9.8073674018770221e-03 -6.1982310957049268e-03 0.0000000000000000e+00  -9.0451232750246285e-03 -6.6838358402259140e-03 0.0000000000000000e+00  -8.2985397114742343e-03 -7.1101721329479900e-03 0.0000000000000000e+00  -7.5674039938550116e-03 -7.4850436869064512e-03 0.0000000000000000e+00  -6.8530076606909589e-03 -7.8134048456268632e-03 0.0000000000000000e+00  -6.1576879369673520e-03 -8.0985122118340195e-03 0.0000000000000000e+00  -5.4848267773993436e-03 -8.3427707497475707e-03 0.0000000000000000e+00  -4.8382164566658234e-03 -8.5480854289473208e-03 0.0000000000000000e+00  -4.2220291789497270e-03 -8.7164322869606407e-03 0.0000000000000000e+00  -3.6404662395846687e-03 -8.8500590014066460e-03 0.0000000000000000e+00  -3.0973712754452068e-03 -8.9515484927095365e-03 0.0000000000000000e+00  -2.5961268900752672e-03 -9.0239514013712267e-03 0.0000000000000000e+00  -2.1393789729385916e-03 -9.0707134986441479e-03 0.0000000000000000e+00  -1.7288414183830138e-03 -9.0955480002492470e-03 0.0000000000000000e+00  -1.3652582579462755e-03 -9.1022929306001400e-03 0.0000000000000000e+00  -1.0484085259250796e-03 -9.0947962977212683e-03 0.0000000000000000e+00  -7.7719716910691660e-04 -9.0766863201156411e-03 0.0000000000000000e+00  -5.4977805773347708e-04 -9.0513200392045925e-03 0.0000000000000000e+00  -3.6360825489280545e-04 -9.0216206864949106e-03 0.0000000000000000e+00  -2.1587340980855390e-04 -8.9901248017595341e-03 0.0000000000000000e+00  -1.0349034842072944e-04 -8.9589165641078741e-03 0.0000000000000000e+00  -2.3232744471491768e-05 -8.9296839253719118e-03 0.0000000000000000e+00  2.8034706301188657e-05 -8.9037693611137315e-03 0.0000000000000000e+00  5.3249770744431051e-05 -8.8822235645136995e-03 0.0000000000000000e+00  5.5363061365955664e-05 -8.8660609793674988e-03 0.0000000000000000e+00  3.6620200528550550e-05 -8.8556612599815059e-03 0.0000000000000000e+00  -2.9392188236087146e-03 -8.4612812019940007e-03 0.0000000000000000e+00  -9.9068595142458062e-03 -7.4710849679640210e-04 0.0000000000000000e+00  -7.3197493773093385e-04 -9.8551342320093191e-04 0.0000000000000000e+00  -9.4655882620233472e-05 -1.9312263603009079e-03 0.0000000000000000e+00  -5.3600181897598929e-03 -7.8506789117997675e-03 0.0000000000000000e+00  -1.2285650858644846e-03 -8.6298038671588171e-03 0.0000000000000000e+00  -1.3045835907046043e-02 -5.5662504082424735e-04 0.0000000000000000e+00  -1.7750750523867939e-05 -3.4146827403679918e-03 0.0000000000000000e+00  -8.2381913081714317e-03 -6.6071161683723244e-03 0.0000000000000000e+00  1.4379845399214787e-05 -4.8295944954726087e-03 0.0000000000000000e+00  -1.4385816595112524e-02 -5.0444379144403697e-04 0.0000000000000000e+00  -4.5410936253944487e-04 -8.6111354959468572e-03 0.0000000000000000e+00  -1.0571088948306755e-02 -5.1228565795846644e-03 0.0000000000000000e+00  -5.4528057947827923e-05 -8.5599401694684083e-03 0.0000000000000000e+00  -1.4804129863757726e-02 -5.2961041650376010e-04 0.0000000000000000e+00  2.6141907193326702e-05 -5.9631581303776701e-03 0.0000000000000000e+00  -6.5346885501925212e-03 -1.1454704891528556e-03 0.0000000000000000e+00  -1.4921562947654454e-02 -5.8820039320085392e-04 0.0000000000000000e+00  3.2711531857310958e-05 -7.1496307084033678e-03 0.0000000000000000e+00  -1.9856518654960340e-03 -8.5860582009747877e-03 0.0000000000000000e+00  -4.0744380672487184e-03 -8.2251299971225385e-03 0.0000000000000000e+00  -6.7589618582909313e-03 -7.3177388121888464e-03 0.0000000000000000e+00  -1.2230646039759480e-02 -3.7082499456389320e-03 0.0000000000000000e+00  4.7839853691362983e-05 -8.5345902216652954e-03 0.0000000000000000e+00  -1.3883741589545121e-02 -5.0971159189081038e-04 0.0000000000000000e+00  -4.2453719673469135e-05 -2.8050571779749682e-03 0.0000000000000000e+00  2.0862251270314137e-06 -4.1279468841295252e-03 0.0000000000000000e+00  -1.2089998717758543e-02 -5.5826048744329871e-04 0.0000000000000000e+00  -1.6574059086664809e-04 -1.5230832609934503e-03 0.0000000000000000e+00  -1.4946782520362533e-02 -6.5161741004784784e-04 0.0000000000000000e+00  3.2865778631321844e-05 -7.9160039781422994e-03 0.0000000000000000e+00  -1.4069232902634012e-02 -1.7816309548813586e-03 0.0000000000000000e+00  4.9699177149327589e-05 -8.5485513772315096e-03 0.0000000000000000e+00  -2.4384876019637324e-03 -8.5357522488591405e-03 0.0000000000000000e+00  -2.7681138751246680e-03 -8.0008637142839414e-03 0.0000000000000000e+00  -3.3157037507314919e-03 -7.9014660520169491e-03 0.0000000000000000e+00  -3.1279830847352145e-03 -7.4711226749212250e-03 0.0000000000000000e+00  -2.5813821643342204e-03 -7.5634198504711033e-03 0.0000000000000000e+00  -2.9196892075284966e-03 -7.0603189679716285e-03 0.0000000000000000e+00  -2.3774366579491593e-03 -7.1420823919524368e-03 0.0000000000000000e+00  -2.6889648910280125e-03 -6.6619576317486764e-03 0.0000000000000000e+00  -3.2853756808363405e-03 -6.5681290252965884e-03 0.0000000000000000e+00  -2.1557020982250837e-03 -6.7304175122126827e-03 0.0000000000000000e+00  -3.0238677532041509e-03 -6.1939070753308399e-03 0.0000000000000000e+00  -3.6802705204834257e-03 -6.0899692532624429e-03 0.0000000000000000e+00  -3.3836754628867286e-03 -5.7405136015876270e-03 0.0000000000000000e+00  -4.1051775518099213e-03 -5.6273446284875782e-03 0.0000000000000000e+00  -3.7708692087501448e-03 -5.3030898551066656e-03 0.0000000000000000e+00  -3.0504862984296762e-03 -5.3870860454039706e-03 0.0000000000000000e+00  -4.5629327276236692e-03 -5.1801207234940666e-03 0.0000000000000000e+00  -4.1896053414894781e-03 -4.8811055068168664e-03 0.0000000000000000e+00  -5.0596449214079528e-03 -4.7459082989668062e-03 0.0000000000000000e+00  -5.4122692162389754e-03 -5.0117429306919051e-03 0.0000000000000000e+00  -5.9809936018935337e-03 -4.5586137031511497e-03 0.0000000000000000e+00  -6.3024645200793440e-03 -4.7951364480130392e-03 0.0000000000000000e+00  -6.9314298528337830e-03 -4.3189735598708392e-03 0.0000000000000000e+00  -7.2160046212097553e-03 -4.5312121596674318e-03 0.0000000000000000e+00  -4.6471458291861356e-03 -4.4712972962934984e-03 0.0000000000000000e+00  -7.8901814194062732e-03 -4.0315951206700848e-03 0.0000000000000000e+00  -8.1371172282827461e-03 -4.2238081462091428e-03 0.0000000000000000e+00  -8.8400427987570078e-03 -3.7037422341628366e-03 0.0000000000000000e+00  -9.0528353224501659e-03 -3.8782346762933832e-03 0.0000000000000000e+00  -7.6001094149273024e-03 -3.8384629776754861e-03 0.0000000000000000e+00  -7.4568366504293238e-03 -4.7487282337796430e-03 0.0000000000000000e+00  -9.7684613115707249e-03 -3.3429365617058315e-03 0.0000000000000000e+00  -9.9529927258058398e-03 -3.5000749429505945e-03 0.0000000000000000e+00  -9.2345714219064148e-03 -4.0555140266280805e-03 0.0000000000000000e+00  -1.0112007924709050e-02 -3.6565016748818201e-03 0.0000000000000000e+00  -1.0829792393703698e-02 -3.0940723507886007e-03 0.0000000000000000e+00  -1.0972475479583159e-02 -3.2271754095094642e-03 0.0000000000000000e+00  -5.7129710628126724e-03 -5.2774744724992289e-03 0.0000000000000000e+00  -3.7592403659716771e-03 -4.5675392620123127e-03 0.0000000000000000e+00  -4.1644747804236880e-03 -4.1774164689368960e-03 0.0000000000000000e+00  -3.2669981300261488e-03 -4.2277599961393500e-03 0.0000000000000000e+00  -3.6010602928983845e-03 -3.8505694543223509e-03 0.0000000000000000e+00  -2.7115358239513583e-03 -3.8477301495220034e-03 0.0000000000000000e+00  -4.6205022986502689e-03 -3.7904803566888717e-03 0.0000000000000000e+00  -2.4893519897665100e-03 -4.2349094501832564e-03 0.0000000000000000e+00  -1.9796905323548595e-03 -3.8139806990668103e-03 0.0000000000000000e+00  -1.8451870099126650e-03 -4.2223613562699727e-03 0.0000000000000000e+00  -1.4086887069224298e-03 -3.7815345224067221e-03 0.0000000000000000e+00  -1.3323271709942189e-03 -4.2112307018421528e-03 0.0000000000000000e+00  -9.7913395644700610e-04 -3.7705724788364226e-03 0.0000000000000000e+00  -9.3554289816805418e-04 -4.2148683114837607e-03 0.0000000000000000e+00  -1.2373726152674462e-03 -4.6445266390558026e-03 0.0000000000000000e+00  -8.7207326763151126e-04 -4.6591323999654807e-03 0.0000000000000000e+00  -6.3407688388122051e-04 -4.2381618435290832e-03 0.0000000000000000e+00  -5.8982578646957142e-04 -4.6875009388651669e-03 0.0000000000000000e+00  -7.9500619925832676e-04 -5.1045625407340409e-03 0.0000000000000000e+00  -5.3343747927717057e-04 -5.1360451915057719e-03 0.0000000000000000e+00  -7.0938006340413710e-04 -5.5513450293490120e-03 0.0000000000000000e+00  -4.6919948096226221e-04 -5.5837273990652176e-03 0.0000000000000000e+00  -6.1924752688704101e-04 -5.9986829523485446e-03 0.0000000000000000e+00  -4.0085382524424458e-04 -6.0296922559741105e-03 0.0000000000000000e+00  -2.8585362393008341e-04 -5.6232171441160895e-03 0.0000000000000000e+00  -2.3445776198920587e-04 -6.0655730196273140e-03 0.0000000000000000e+00  -3.7255140435773900e-03 -7.3492587287653692e-03 0.0000000000000000e+00  -9.5555579433286575e-03 -3.1795299894521035e-03 0.0000000000000000e+00  -1.0247016381070308e-02 -3.8186288108176384e-03 0.0000000000000000e+00  -1.1095458200526353e-02 -3.3609670953247935e-03 0.0000000000000000e+00  -3.3156610827598989e-04 -6.4725862366423748e-03 0.0000000000000000e+00  -1.8268342433428453e-04 -6.5033857103514040e-03 0.0000000000000000e+00  -1.0480805826820492e-02 -2.8066979949585478e-03 0.0000000000000000e+00  -3.7620799084122492e-04 -4.7299721823619188e-03 0.0000000000000000e+00  -1.1809378898407111e-02 -2.7701410401792552e-03 0.0000000000000000e+00  -1.1927196653624931e-02 -2.8707233405967682e-03 0.0000000000000000e+00  -1.1309839995790205e-04 -6.1064592916086563e-03 0.0000000000000000e+00  -7.5579930570108197e-05 -6.5377862268002004e-03 0.0000000000000000e+00  -2.1019257539644726e-03 -3.4126933156055227e-03 0.0000000000000000e+00  -3.9831185351689863e-03 -3.4770670514222210e-03 0.0000000000000000e+00  -5.1498544923543315e-03 -3.3878832935087641e-03 0.0000000000000000e+00  -1.0269612207537152e-02 -2.6420687028560520e-03 0.0000000000000000e+00  -1.0358972705590773e-02 -3.9942673219429013e-03 0.0000000000000000e+00  -9.5147939438121019e-03 -4.4453301961332016e-03 0.0000000000000000e+00  -2.6409623896189797e-04 -6.9105791564737055e-03 0.0000000000000000e+00  -4.3920177735370323e-04 -6.8885503677931625e-03 0.0000000000000000e+00  -1.0157182644213126e-03 -5.5249010846647583e-03 0.0000000000000000e+00  -9.9481546993836494e-04 -3.3233804030138028e-03 0.0000000000000000e+00  -6.6426287281799495e-04 -3.3327930923395415e-03 0.0000000000000000e+00  -4.4476796494305332e-03 -3.0862167600738967e-03 0.0000000000000000e+00  -5.7857540910464774e-03 -2.9312237931644163e-03 0.0000000000000000e+00  -6.3721778503277038e-03 -3.1934249904685000e-03 0.0000000000000000e+00  -1.8947499480012895e-03 -7.2011987578626301e-03 0.0000000000000000e+00  -1.6878304232812497e-03 -6.7797194687855009e-03 0.0000000000000000e+00  -1.4727560663079346e-03 -7.2430214387084928e-03 0.0000000000000000e+00  -1.9163385821385070e-03 -6.3233457169497879e-03 0.0000000000000000e+00  -1.1174383659437612e-02 -2.2613275708076907e-03 0.0000000000000000e+00  -1.2614678631349066e-02 -2.2878983693555939e-03 0.0000000000000000e+00  -1.2734227738451008e-02 -2.3499973908953677e-03 0.0000000000000000e+00  -1.2029991727606236e-02 -2.9718415258794344e-03 0.0000000000000000e+00  -1.2485350764951048e-02 -2.2112313562000275e-03 0.0000000000000000e+00  -1.2844279972136708e-02 -2.4029316438865613e-03 0.0000000000000000e+00  -3.0526912277948407e-05 -6.1521244465272806e-03 0.0000000000000000e+00  -4.7844384094272411e-06 -6.5757640046878504e-03 0.0000000000000000e+00  -4.0452949033920248e-05 -6.9616471166362151e-03 0.0000000000000000e+00  -5.7531957711406303e-05 -5.7220595090175753e-03 0.0000000000000000e+00  1.7963644174952740e-05 -6.9913911574034622e-03 0.0000000000000000e+00  -7.1084101675859303e-03 -2.6612243043453313e-03 0.0000000000000000e+00  -7.5739814264776523e-03 -2.9163759788948672e-03 0.0000000000000000e+00  -1.0964751061060225e-02 -2.0838766823209572e-03 0.0000000000000000e+00  -1.2853789526068896e-03 -6.8152345151629469e-03 0.0000000000000000e+00  -1.1108752563989720e-03 -7.2721505555046733e-03 0.0000000000000000e+00  -9.6165792173814827e-03 -4.6755047016281562e-03 0.0000000000000000e+00  -8.7896935579664763e-03 -5.1107657096581124e-03 0.0000000000000000e+00  -1.2116557877201105e-02 -3.0821176616409214e-03 0.0000000000000000e+00  -1.2944700418920469e-02 -2.4513462527322159e-03 0.0000000000000000e+00  -3.5491661683829533e-04 -7.3266