<?xml version="1.0"?>
<VTKFile type="UnstructuredGrid"  version="0.1"  >
<UnstructuredGrid>
<Piece  NumberOfPoints="786" NumberOfCells="1448">
<Points>
<DataArray  type="Float64"  NumberOfComponents="3"  format="ascii">0 0 0  2 0 0  2 1 0  0 1 0  1.1 0.5 0  1 0.6 0  0.9 0.5 0  1 0.4 0  0.0999999999997993 0 0  0.1999999999996293 0 0  0.2999999999994072 0 0  0.3999999999991157 0 0  0.4999999999988242 0 0  0.5999999999985328 0 0  0.6999999999982413 0 0  0.7999999999979498 0 0  0.8999999999976585 0 0  0.9999999999973885 0 0  1.09999999999763 0 0  1.199999999997894 0 0  1.299999999998157 0 0  1.39999999999842 0 0  1.499999999998683 0 0  1.599999999998947 0 0  1.69999999999921 0 0  1.799999999999474 0 0  1.899999999999737 0 0  2 0.09999999999981467 0  2 0.1999999999995579 0  2 0.2999999999992664 0  2 0.3999999999989749 0  2 0.4999999999986943 0  2 0.5999999999989468 0  2 0.69999999999921 0  2 0.7999999999994734 0  2 0.8999999999997368 0  1.899999999999584 1 0  1.799999999999167 1 0  1.699999999999306 1 0  1.6 1 0  1.500000000000693 1 0  1.400000000001387 1 0  1.30000000000208 1 0  1.200000000002774 1 0  1.100000000003467 1 0  1.000000000004117 1 0  0.9000000000037447 1 0  0.8000000000033287 1 0  0.7000000000029127 1 0  0.6000000000024965 1 0  0.5000000000020806 1 0  0.4000000000016644 1 0  0.3000000000012482 1 0  0.200000000000832 1 0  0.100000000000416 1 0  0 0.8999999999995836 0  0 0.7999999999999998 0  0 0.7000000000006934 0  0 0.6000000000013869 0  0 0.5000000000020587 0  0 0.4000000000016644 0  0 0.3000000000012483 0  0 0.2000000000008322 0  0 0.100000000000416 0  1.099518472670127 0.5098017140034429 0  1.098078528048338 0.5195090321613164 0  1.095694033567837 0.5290284677431957 0  1.092387953227357 0.5382683432938981 0  1.088192126382747 0.5471396737800499 0  1.083146961160831 0.55555702340586 0  1.077301045259354 0.5634393285100919 0  1.070710677995721 0.5707106782415886 0  1.063439328380613 0.577301045365614 0  1.055557023280134 0.5831469612448383 0  1.047139673716648 0.5881921264166364 0  1.038268343315128 0.5923879532185636 0  1.029028467780885 0.5956940335564038 0  1.019509032285118 0.5980785280237129 0  1.009801714131028 0.5995184726575605 0  0.9901982859431546 0.5995184726648668 0  0.9804909677481907 0.5980785280303383 0  0.970971532165869 0.5956940335402517 0  0.9617316566373946 0.5923879531988978 0  0.9528603261353096 0.5881921263375061 0  0.9444429765027096 0.5831469610997391 0  0.9365606713723549 0.5773010451628802 0  0.9292893216707772 0.5707106779080866 0  0.922698954506381 0.5634393282246387 0  0.9168530386494218 0.5555570231218832 0  0.9118078734719752 0.547139673508255 0  0.9076120466660803 0.5382683430366337 0  0.9043059663774589 0.5290284675628592 0  0.9019214719343366 0.5195090320742178 0  0.9004815273214857 0.50980171391828 0  0.9004815273375527 0.4901982859185888 0  0.9019214719746116 0.4804909677233057 0  0.9043059664587256 0.4709715321692402 0  0.9076120468105043 0.461731656614696 0  0.9118078736419248 0.4528603261737919 0  0.9168530388622553 0.444442976559589 0  0.9226989547882446 0.4365606714319095 0  0.9292893220390532 0.4292893217236373 0  0.9365606716990126 0.4226989545690388 0  0.9444429768352933 0.4168530386780356 0  0.9528603264384798 0.4118078735004461 0  0.9617316569325829 0.4076120466788312 0  0.9709715324087222 0.4043059663860796 0  0.9804909679254118 0.4019214719344102 0  0.9901982860830213 0.4004815273213576 0  1.009801714143769 0.4004815273436945 0  1.019509032315507 0.401921471982332 0  1.029028467848558 0.4043059664641246 0  1.038268343464751 0.4076120468434122 0  1.047139673950703 0.4118078737084688 0  1.055557023505153 0.4168530389055144 0  1.063439328631151 0.4226989548399974 0  1.070710678317589 0.4292893220802799 0  1.077301045484115 0.4365606717637809 0  1.083146961347192 0.4444429768730498 0  1.088192126513248 0.4528603264640991 0  1.092387953295835 0.4617316568714208 0  1.095694033580114 0.470971532297277 0  1.098078528048756 0.4804909678407809 0  1.099518472667619 0.4901982859710989 0  0.07677024053808743 0.5478606856579716 0  1.925073517161635 0.452742612476927 0  1.45022711366683 0.07551452397399896 0  0.5583542642766637 0.9149973005417038 0  0.55781552435296 0.0809781337687418 0  1.448554822594755 0.9160897864173811 0  1.264218750908538 0.9194723759348866 0  0.7441154309711006 0.09651100655335992 0  0.7409349128969822 0.9163790003689829 0  1.259936993086601 0.07649138456316028 0  1.057243800047625 0.9173984658808033 0  0.9528064485264065 0.08709939771557765 0  1.65450424927898 0.07968369992876685 0  0.3350555714846132 0.9119330203094886 0  1.649999999999653 0.913397459622157 0  0.3471155030378571 0.08424464099519172 0  0.09048327532679781 0.342695824824171 0  1.90486078996149 0.6519885492832782 0  0.08651904419087442 0.7406693627296941 0  1.921153069547606 0.2471255192924661 0  1.849999999999375 0.9133974596214359 0  0.08892505809117129 0.1551198064861514 0  0.1536493667713706 0.9221114264763826 0  1.847771239097244 0.1018406639070294 0  1.133177340652713 0.9164644595076992 0  1.197907915877831 0.8373494507936589 0  1.089418249734909 0.8468476608633259 0  1.026904305959213 0.843155467904775 0  1.058509177839653 0.7898696555398559 0  1.036462842431551 0.6030788784945602 0  1.01582723007114 0.6074891203311941 0  1.005463560979325 0.7850251426244315 0  0.9839789939995556 0.6087598479731584 0  1.034852113609194 0.7390529327437592 0  1.081845199190079 0.7428313895987482 0  0.9870160909191689 0.7359729944312435 0  0.9562537000373408 0.7754738339672571 0  0.9419917505622891 0.73316407553211 0  0.9535259411262335 0.5982572161394235 0  0.9100794915528146 0.7678036905570957 0  0.8954222952521398 0.7225449594988862 0  1.064285535854376 0.7046955485140816 0  1.101907138463694 0.7054492716491996 0  1.064674291387108 0.5874814646800455 0  0.8633603681569776 0.7595869145407732 0  0.8504381193076169 0.7157398372882123 0  0.9276896060134657 0.5816832690042587 0  0.8732267678367636 0.6884383036828603 0  0.8363594121961939 0.6770573507402828 0  0.8081360398401592 0.7069615781416229 0  0.7970033999811396 0.6655959407702806 0  0.7643475439484503 0.6956088639783583 0  0.7527496155027761 0.6503726732150366 0  0.7153243689580188 0.6837311764258092 0  0.7018890548775067 0.6325858677936558 0  0.7434760916957237 0.6044216431758882 0  0.6985297076876603 0.5720758033488899 0  0.8946734738442462 0.5263482915166204 0  0.6461828249709232 0.6149911022530776 0  0.6345194388787642 0.5549506306609305 0  0.683105523638134 0.505806628942558 0  0.5832252517228638 0.5965297036641987 0  0.570606280163754 0.5267176448653352 0  0.891312956363941 0.5051779165571759 0  0.9016637542093587 0.5465953935638876 0  0.5147261647157551 0.5742280389591969 0  0.5025660862413626 0.5020608210399269 0  0.5596709244439364 0.4537518920713086 0  0.4889919065799766 0.4286664957385582 0  0.4442627076705054 0.5500305571915355 0  0.8269676596822488 0.6384843288659166 0  0.5492394248242352 0.3813545446037701 0  0.4582825971671352 0.6253347122359904 0  0.3857742462291885 0.6022252429624919 0  0.3702585642668961 0.5320364146148016 0  0.4751617864897376 0.3531114427783552 0  1.08166571188387 0.6755467137542313 0  1.11623029786944 0.6705444049811968 0  1.138275069954226 0.7036542736600724 0  1.154887340451525 0.6705009512124016 0  1.087716777168 0.5644802338388071 0  1.175933338357465 0.7020855092572715 0  1.194841425198374 0.665771677843001 0  1.220074592875894 0.7063323354732131 0  1.238892672326111 0.6606713148811754 0  1.206577789201751 0.6217179259308819 0  1.257868089563633 0.6210981900955477 0  1.102042960352312 0.5365115550803543 0  1.222801932836619 0.5737997381172237 0  1.278262245655876 0.5702026224421489 0  1.246998418993937 0.5271195988524385 0  1.301557111205262 0.5205418488410092 0  1.267024306703841 0.4782158188287975 0  1.338402661746239 0.5704669453287129 0  1.362966298534547 0.5123897615832806 0  1.403354402766569 0.5642571711070872 0  1.430522129451901 0.5015548286848412 0  1.107320975518791 0.4737286721375125 0  1.108425421493449 0.4946680972350466 0  1.107773757200569 0.5161308436391965 0  1.473249235546273 0.5573878792959176 0  1.499418439132614 0.4918991294604823 0  1.546564825548989 0.5492562345738241 0  1.575895206528449 0.4745908755834634 0  1.268698592065982 0.7031376258990776 0  1.453495997059882 0.4233145347019561 0  1.516656003063019 0.6195153289297529 0  1.594397736928598 0.6119594721097178 0  1.134382572035891 0.6450740439088278 0  0.5979934467012623 0.6599410044933398 0  1.05180061510041 0.6729536231519335 0  0.96802174272085 0.7053725235394964 0  1.182903293803225 0.5847427085452477 0  1.220858549146987 0.4901268090250945 0  1.226883692659373 0.4405207261125593 0  1.284213260904772 0.4274681057455967 0  1.245770126442909 0.3899184278737861 0  1.300890663838484 0.3738287961319654 0  1.196702526676082 0.3990452440342164 0  1.080659500225728 0.426495636729507 0  1.093321209724305 0.4440687730730662 0  1.210513760838627 0.3539827123626146 0  1.167188252850954 0.3658705173337491 0  1.178474853207407 0.3225980905870086 0  1.133509120258191 0.3381500798389104 0  1.046337701341191 0.4020271627553147 0  1.063238529941497 0.4131148280802575 0  1.146845372866415 0.2924452407831609 0  1.107075538460627 0.3044270004620791 0  1.116750139639492 0.2606156331827951 0  1.07071221696015 0.2786633636660513 0  1.016117269214498 0.3923584698035796 0  1.22235004311975 0.3066299227101633 0  1.084342282490327 0.225998504811933 0  1.037398023604232 0.2407425232788703 0  1.024161075848878 0.2848075503493911 0  0.9840975983958428 0.3927947155450817 0  0.992838557306712 0.254522396709938 0  0.9855813873041455 0.29285685215039 0  0.9542648485702723 0.2676352089372322 0  0.9505837183166822 0.3076312417611508 0  0.9442214507514448 0.4069121207276981 0  0.9176919443314837 0.2806527009906461 0  0.9067428858683297 0.4439472553721965 0  0.9192940796610765 0.4268417297656744 0  0.8973203041900489 0.4629151573762476 0  0.8923596548943471 0.4840367207366032 0  0.9102904500306963 0.3178186467564401 0  0.8801638496558747 0.292820116
[...]
<PointData  Vectors="f_579"> 
<DataArray  type="Float64"  Name="f_579"  NumberOfComponents="3" format="ascii">1.0000000000000000e+00 1.0000000000000000e+00 0.0000000000000000e+00  4.9999999999999991e+00 0.0000000000000000e+00 0.0000000000000000e+00  5.0000000000000000e+00 -1.2246467991473533e-15 0.0000000000000000e+00  2.6425731669197217e+00 1.8404260131662062e+00 0.0000000000000000e+00  2.5121055676883679e+00 1.3061113690813231e+00 0.0000000000000000e+00  2.7787909729476357e+00 9.7603060075830350e-01 0.0000000000000000e+00  1.9826664868851862e+00 8.2246504286036926e-01 0.0000000000000000e+00  1.6168470682868665e+00 1.1468168952538524e+00 0.0000000000000000e+00  9.9501247919270230e-01 1.0000000000000000e+00 0.0000000000000000e+00  9.8019867330682786e-01 1.0000000000000000e+00 0.0000000000000000e+00  9.5599748183326994e-01 1.0000000000000000e+00 0.0000000000000000e+00  9.2311634638696227e-01 1.0000000000000000e+00 0.0000000000000000e+00  8.8249690258511426e-01 1.0000000000000000e+00 0.0000000000000000e+00  8.3527021141200730e-01 1.0000000000000000e+00 0.0000000000000000e+00  7.8270453824283182e-01 1.0000000000000000e+00 0.0000000000000000e+00  7.2614903707488210e-01 1.0000000000000000e+00 0.0000000000000000e+00  6.6697681085988003e-01 1.0000000000000000e+00 0.0000000000000000e+00  6.0653065971421738e-01 9.9999999999999989e-01 0.0000000000000000e+00  5.4607442664113304e-01 1.0000000000000000e+00 0.0000000000000000e+00  4.8675225596120175e-01 1.0000000000000000e+00 0.0000000000000000e+00  4.2955735821176827e-01 1.0000000000000000e+00 0.0000000000000000e+00  3.7531109885222969e-01 1.0000000000000000e+00 0.0000000000000000e+00  3.2465246735899100e-01 1.0000000000000000e+00 0.0000000000000000e+00  2.7803730045366259e-01 1.0000000000000000e+00 0.0000000000000000e+00  2.3574607655618018e-01 1.0000000000000000e+00 0.0000000000000000e+00  1.9789869908380203e-01 1.0000000000000000e+00 0.0000000000000000e+00  1.6447445657723708e-01 9.9999999999999989e-01 0.0000000000000000e+00  5.0000000000000000e+00 2.9389262614576550e+00 0.0000000000000000e+00  5.0000000000000000e+00 4.7552825814714765e+00 0.0000000000000000e+00  5.0000000000000000e+00 4.7552825814828896e+00 0.0000000000000000e+00  5.0000000000000000e+00 2.9389262614884211e+00 0.0000000000000000e+00  5.0000000000000000e+00 4.1018912191200604e-11 0.0000000000000000e+00  5.0000000000000000e+00 -2.9389262614355967e+00 0.0000000000000000e+00  5.0000000000000000e+00 -4.7552825814680997e+00 0.0000000000000000e+00  5.0000000000000000e+00 -4.7552825814808815e+00 0.0000000000000000e+00  5.0000000000000000e+00 -2.9389262614690566e+00 0.0000000000000000e+00  5.0924501810487248e+00 -2.0699202287464313e+00 0.0000000000000000e+00  5.4488625365666898e+00 -1.6626897218341745e+00 0.0000000000000000e+00  5.3908177495983054e+00 -9.2088972931684698e-01 0.0000000000000000e+00  5.1043187718920260e+00 -2.8413264861555698e-01 0.0000000000000000e+00  4.7448820790235748e+00 1.9258036235104048e-01 0.0000000000000000e+00  4.3792494562415190e+00 5.3507882493515491e-01 0.0000000000000000e+00  4.0302168097040587e+00 7.7265902777369522e-01 0.0000000000000000e+00  3.7125656061905028e+00 9.2383020146413408e-01 0.0000000000000000e+00  3.4371008113252475e+00 9.9994476206724503e-01 0.0000000000000000e+00  3.2180995907218604e+00 1.0339219297037350e+00 0.0000000000000000e+00  3.0490727840679250e+00 1.0543983743372911e+00 0.0000000000000000e+00  2.9283798212001599e+00 1.0900053968893075e+00 0.0000000000000000e+00  2.8316111653573648e+00 1.1442613606194205e+00 0.0000000000000000e+00  2.7557328302530957e+00 1.2097306851399863e+00 0.0000000000000000e+00  2.6993964767051817e+00 1.2837054032778898e+00 0.0000000000000000e+00  2.6627188573565665e+00 1.3664937954669858e+00 0.0000000000000000e+00  2.6437245009689136e+00 1.4623551863022231e+00 0.0000000000000000e+00  2.6389084955420312e+00 1.5746175157567208e+00 0.0000000000000000e+00  2.6406320679669557e+00 1.7025070267133435e+00 0.0000000000000000e+00  2.5037508039621224e+00 1.8423335500944058e+00 0.0000000000000000e+00  2.3551294843547339e+00 1.8432260628950621e+00 0.0000000000000000e+00  2.1900598213863156e+00 1.8373858715256208e+00 0.0000000000000000e+00  2.0078509363515620e+00 1.8158086950601475e+00 0.0000000000000000e+00  1.8119684888278222e+00 1.7707738036086700e+00 0.0000000000000000e+00  1.6102859820781374e+00 1.6946821276249175e+00 0.0000000000000000e+00  1.4159496143293475e+00 1.5859209513147974e+00 0.0000000000000000e+00  1.2340088541647780e+00 1.4349832100121340e+00 0.0000000000000000e+00  1.0873830075164403e+00 1.2445641259790869e+00 0.0000000000000000e+00  2.5705367559637282e+00 1.2931076960337162e+00 0.0000000000000000e+00  2.6250076164416454e+00 1.2780436603651075e+00 0.0000000000000000e+00  2.6748725193096670e+00 1.2611054840649456e+00 0.0000000000000000e+00  2.7193540409600963e+00 1.2424121067381579e+00 0.0000000000000000e+00  2.7581347088932908e+00 1.2228041490912973e+00 0.0000000000000000e+00  2.7908907534805225e+00 1.2024528287646397e+00 0.0000000000000000e+00  2.8177573474609652e+00 1.1808534741744670e+00 0.0000000000000000e+00  2.8384181256380958e+00 1.1583577091542048e+00 0.0000000000000000e+00  2.8522936751922741e+00 1.1355996441306011e+00 0.0000000000000000e+00  2.8597660007809038e+00 1.1125126532256275e+00 0.0000000000000000e+00  2.8609083120276013e+00 1.0890272503933212e+00 0.0000000000000000e+00  2.8557911529485316e+00 1.0656911111719938e+00 0.0000000000000000e+00  2.8448893469682286e+00 1.0426740545718676e+00 0.0000000000000000e+00  2.8283321047960905e+00 1.0199222281704452e+00 0.0000000000000000e+00  2.8061948325059682e+00 9.9760173237136429e-01 0.0000000000000000e+00  2.7469013967057800e+00 9.5533552649628095e-01 0.0000000000000000e+00  2.7110226017574819e+00 9.3584982814531315e-01 0.0000000000000000e+00  2.6715230547037612e+00 9.1721106702655342e-01 0.0000000000000000e+00  2.6284877561897568e+00 9.0004039141263514e-01 0.0000000000000000e+00  2.5819621553659533e+00 8.8374591148087001e-01 0.0000000000000000e+00  2.5327981223527503e+00 8.6957756689091226e-01 0.0000000000000000e+00  2.4812558261965907e+00 8.5671564730887240e-01 0.0000000000000000e+00  2.4287122333282727e+00 8.4534301262852785e-01 0.0000000000000000e+00  2.3737507031346641e+00 8.3556576529331950e-01 0.0000000000000000e+00  2.3179584570599601e+00 8.2778453636398142e-01 0.0000000000000000e+00  2.2615591427878479e+00 8.2192546535383704e-01 0.0000000000000000e+00  2.2047708379374349e+00 8.1805870688212889e-01 0.0000000000000000e+00  2.1483137677042614e+00 8.1617684096212073e-01 0.0000000000000000e+00  2.0920939500951374e+00 8.1608424590546047e-01 0.0000000000000000e+00  2.0366836370704973e+00 8.1817529066388006e-01 0.0000000000000000e+00  1.9303529801766639e+00 8.2889720392745736e-01 0.0000000000000000e+00  1.8800301935642425e+00 8.3756628172080350e-01 0.0000000000000000e+00  1.8323475996877197e+00 8.4841111819710280e-01 0.0000000000000000e+00  1.7876675183207626e+00 8.6140394360769623e-01 0.0000000000000000e+00  1.7465517168374964e+00 8.7649235425374983e-01 0.0000000000000000e+00  1.7087591857652165e+00 8.9392696428801421e-01 0.0000000000000000e+00  1.6754564669841185e+00 9.1337892273241561e-01 0.0000000000000000e+00  1.6466348789286605e+00 9.3440105826656428e-01 0.0000000000000000e+00  1.6226376223354955e+00 9.5699935118741297e-01 0.0000000000000000e+00  1.6035931596390385e+00 9.8115542162332148e-01 0.0000000000000000e+00  1.5901497804805753e+00 1.0069525106163169e+00 0.0000000000000000e+00  1.5827407474677031e+00 1.0340684178026671e+00 0.0000000000000000e+00  1.5815757386017060e+00 1.0617134924521621e+00 0.0000000000000000e+00  1.5866892886832484e+00 1.0900149418775222e+00 0.0000000000000000e+00  1.5984148327901908e+00 1.1185302137614754e+00 0.0000000000000000e+00  1.6420268925505432e+00 1.1745053798737302e+00 0.0000000000000000e+00  1.6736414778148090e+00 1.2009458623701001e+00 0.0000000000000000e+00  1.7110122554086029e+00 1.2258275344360396e+00 0.0000000000000000e+00  1.7546213282376648e+00 1.2490470790413459e+00 0.0000000000000000e+00  1.8041893949105201e+00 1.2703755034343567e+00 0.0000000000000000e+00  1.8581174536676586e+00 1.2880993299557979e+00 0.0000000000000000e+00  1.9171404609625091e+00 1.3041902607986575e+00 0.0000000000000000e+00  1.9788377757426949e+00 1.3167065270117966e+00 0.0000000000000000e+00  2.0441185836372111e+00 1.3261341123263068e+00 0.0000000000000000e+00  2.1117199970694545e+00 1.3322447596027112e+00 0.0000000000000000e+00  2.1805017902907626e+00 1.3351571729988418e+00 0.0000000000000000e+00  2.2495985978236419e+00 1.3348307851016714e+00 0.0000000000000000e+00  2.3181462291819441e+00 1.3314005114750209e+00 0.0000000000000000e+00  2.3847220884854874e+00 1.3254329902194850e+00 0.0000000000000000e+00  2.4496608229708956e+00 1.3171774613685434e+00 0.0000000000000000e+00  1.9079150190549188e+00 1.6613683658912992e+00 0.0000000000000000e+00  4.1826974923794191e+00 7.1593733553113181e-01 0.0000000000000000e+00  8.8389083699683524e-01 9.9984957841732414e-01 0.0000000000000000e+00  2.6532620556790696e+00 1.2398182941452183e+00 0.0000000000000000e+00  9.9588751417895982e-01 1.0479090063881622e+00 0.0000000000000000e+00  4.2628986777049995e+00 3.8687502607620861e-01 0.0000000000000000e+00  3.7616752723558666e+00 8.3622717168179250e-01 0.0000000000000000e+00  9.7555084817272852e-01 1.0392640996567675e+00 0.0000000000000000e+00  2.8070285161724033e+00 1.1195456842351754e+00 0.0000000000000000e+00  8.1600380256318039e-01 1.0289200068156865e+00 0.0000000000000000e+00  3.2691046478844297e+00 1.0177184595435347e+00 0.0000000000000000e+00  9.0251526806147675e-01 1.0436038491849056e+00 0.0000000000000000e+00  1.2808817748898693e+00 1.0390140259004523e+00 0.0000000000000000e+00  2.5508423145403891e+00 1.4265249701157536e+00 0.0000000000000000e+00  4.8074937574190750e+00 -5.5617347862403144e-01 0.0000000000000000e+00  1.0514257326918610e+00 1.0745797283057332e+00 0.0000000000000000e+00  1.4978086377009201e+00 1.4889169991168894e+00 0.0000000000000000e+00  4.3995427535554610e+00 -2.0302578612004702e+00 0.0000000000000000e+00  2.2608755028741183e+00 1.7061238599829018e+00 0.0000000000000000e+00  4.3719007319731960e+00 2.5792671812946444e+00 0.0000000000000000e+00  5.2666161030742122e+00 -1.9558380702663545e+00 0.0000000000000000e+00  1.1636350140119773e+00 1.2561258891368967e+00 0.0000000000000000e+00  2.5379422494442094e+00 1.6312985940395683e+00 0.0000000000000000e+00  2.9237982230899120e+00 1.4172815625528323e+00 0.0000000000000000e+00  3.4303077875118273e+00 9.8200691090262182e-01 0.0000000000000000e+00  3.4375971259359126e+00 9.3062332278728988e-01 0.0000000000000000e+00  3.2347225089960747e+00 1.0090416055579852e+00 0.0000000000000000e+00  3.1149908865584015e+00 1.0236832687890951e+00 0.0000000000000000e+00  3.0836029148536723e+00 1.0216439842683964e+00 0.0000000000000000e+00  2.8345241783968258e+00 1.0592944699518232e+00 0.0000000000000000e+00  2.8015897165481856e+00 1.0113372107810512e+00 0.0000000000000000e+00  2.9888346591776704e+00 1.0211837002101509e+00 0.0000000000000000e+00  2.7208093153971098e+00 9.4589302742341708e-01 0.0000000000000000e+00  2.9575059111494308e+00 1.0237171577278483e+00 0.0000000000000000e+00  3.0411904394770573e+00 1.0285611220253870e+00 0.0000000000000000e+00  2.8801882507035099e+00 1.0094489424413571e+00 0.0000000000000000e+00  2.9011063663360512e+00 1.0177739345315020e+00 0.0000000000000000e+00  2.8132718612662098e+00 1.0019686079493131e+00 0.0000000000000000e+00  2.6099613707935467e+00 8.9535953369964094e-01 0.0000000000000000e+00  2.8266084236371531e+00 1.0215510361362616e+00 0.0000000000000000e+00  2.7340449939981206e+00 1.0067370932451067e+00 0.0000000000000000e+00  2.9475083090137617e+00 1.0393147666607707e+00 0.0000000000000000e+00  3.0092744311113218e+00 1.0417222308511718e+00 0.0000000000000000e+00  2.8503883155594130e+00 1.1279579950504850e+00 0.0000000000000000e+00  2.7533623264471250e+00 1.0362129926026555e+00 0.0000000000000000e+00  2.6628529648369637e+00 1.0291259222928408e+00 0.0000000000000000e+00  2.4776420780189601e+00 8.6831283365105427e-01 0.0000000000000000e+00  2.6436299409379194e+00 1.0029797813709720e+00 0.0000000000000000e+00  2.5692328548148624e+00 1.0285179986002626e+00 0.0000000000000000e+00  2.5913392364153438e+00 1.0584807484355450e+00 0.0000000000000000e+00  2.4906576622531542e+00 1.0622404299330488e+00 0.0000000000000000e+00  2.5143193589459778e+00 1.0921793087003560e+00 0.0000000000000000e+00  2.3999992451027397e+00 1.1004788302808295e+00 0.0000000000000000e+00  2.4338824511039157e+00 1.1300266042433544e+00 0.0000000000000000e+00  2.3039431969711717e+00 1.1401343339407561e+00 0.0000000000000000e+00  2.2712986678691429e+00 1.1083953457926718e+00 0.0000000000000000e+00  2.1442256890397338e+00 1.1417477182077713e+00 0.0000000000000000e+00  2.1298471066041276e+00 8.5680252931014589e-01 0.0000000000000000e+00  2.2147924370323233e+00 1.1777622991072962e+00 0.0000000000000000e+00  2.0591137013032181e+00 1.1804923846844366e+00 0.0000000000000000e+00  1.9509011804515368e+00 1.1446762434200271e+00 0.0000000000000000e+00  2.1305384802119431e+00 1.2152066065810052e+00 0.0000000000000000e+00  1.9603770373901588e+00 1.2121250096570013e+00 0.0000000000000000e+00  2.0107042117713383e+00 8.6270938624496452e-01 0.0000000000000000e+00  2.2496310776270056e+00 8.5567219573205044e-01 0.0000000000000000e+00  2.0463567264802238e+00 1.2529938815739512e+00 0.0000000000000000e+00  1.8800466715455386e+00 1.2436278623746284e+00 0.0000000000000000e+00  1.7825903487166992e+00 1.2000097155939713e+00 0.0000000000000000e+00  1.7109514879176193e+00 1.2274235964863298e+00 0.0000000000000000e+00  1.9677773287954676e+00 1.2910945866191053e+00 0.0000000000000000e+00  2.4667734196787250e+00 1.0294211934257329e+00 0.0000000000000000e+00  1.6119791630083287e+00 1.1815533340319480e+00 0.0000000000000000e+00  2.1303432246457876e+00 1.2979987934752684e+00 0.0000000000000000e+00  2.0575773640906632e+00 1.3451599325490546e+00 0.0000000000000000e+00  1.9097204971260917e+00 1.3358172252717546e+00 0.0000000000000000e+00  1.5427830704521257e+00 1.2036771226207073e+00 0.0000000000000000e+00  2.9303167473788205e+00 1.0592623214818915e+00 0.0000000000000000e+00  2.9731565329444964e+00 1.0599941494544145e+00 0.0000000000000000e+00  3.0629473446030326e+00 1.0267249900390303e+00 0.0000000000000000e+00  3.0243100463400068e+00 1.0317464990332232e+00 0.0000000000000000e+00  2.8091363987541436e+00 1.1841127300319698e+00 0.0000000000000000e+00  3.1162038249752713e+00 9.9348948584541819e-01 0.0000000000000000e+00  3.0630605051938598e+00 9.8545992020342099e-01 0.0000000000000000e+00  3.1894661334827927e+00 9.3550369850570148e-01 0.0000000000000000e+00  3.1012576072225415e+00 9.1932351399662560e-01 0.0000000000000000e+00  2.9688169628949339e+00 9.8347206297300716e-01 0.0000000000000000e+00  3.0118213804308778e+00 8.9546007449764842e-01 0.0000000000000000e+00  2.7065922358456587e+00 1.2251750803333761e+00 0.0000000000000000e+00  2.8392657928297953e+00 9.6579478577025435e-01 0.0000000000000000e+00  2.8693074767883853e+00 8.6781855550999865e-01 0.0000000000000000e+00  2.6879394359270052e+00 9.3054792217146098e-01 0.0000000000000000e+00  2.7147685024384760e+00 8.3899767163267280e-01 0.0000000000000000e+00  2.5120766369117962e+00 9.0973966561885500e-01 0.0000000000000000e+00  2.9332933190031167e+00 7.5592310982434430e-01 0.0000000000000000e+00  2.7587194885779232e+00 7.3369503578841855e-01 0.0000000000000000e+00  2.9942100520326358e+00 6.2705407372860678e-01 0.0000000000000000e+00  2.8167681660423161e+00 6.1317044549627575e-01 0.0000000000000000e+00  2.3414812532881166e+00 1.2692907911242959e+00 0.0000000000000000e+00  2.4789227788838701e+00 1.2639432925873180e+00 0.0000000000000000e+00  2.6047726000419278e+00 1.2439376192329836e+00 0.0000000000000000e+00  3.0724423303701478e+00 4.7714559150769253e-01 0.0000000000000000e+00  2.8979276086452486e+00 4.8617422790490511e-01 0.0000000000000000e+00  3.1645761873979525e+00 3.1088268608734010e-01 0.0000000000000000e+00  2.9870552064934279e+00 3.5984682839164822e-01 0.0000000000000000e+00  3.2504206571565573e+00 8.5750157574459851e-01 0.0000000000000000e+00  2.5817290529468901e+00 6.4392808349580188e-01 0.0000000000000000e+00  3.3516247095224454e+00 3.0912726000047797e-01 0.0000000000000000e+00  3.4581087893272726e+00 8.5798294240481743e-02 0.0000000000000000e+00  2.9537607689200898e+00 1.0666493596695950e+00 0.0000000000000000e+00  2.2800229782318100e+00 1.2102895197327532e+00 0.0000000000000000e+00  2.8809798469727279e+00 1.0460427530357852e+00 0.0000000000000000e+00  2.8032710907179013e+00 9.9241572010623347e-01 0.0000000000000000e+00  2.8518589074492118e+00 1.0328036092159580e+00 0.0000000000000000e+00  2.5150532611480028e+00 9.8182576752446371e-01 0.0000000000000000e+00  2.3030747139475363e+00 9.8636764992877246e-01 0.0000000000000000e+00  2.3261829642358585e+00 9.0448324050389872e-01 0.0000000000000000e+00  2.1153361568089744e+00 9.7832330157049296e-01 0.0000000000000000e+00  2.1343850939836493e+00 9.1027657837145404e-01 0.0000000000000000e+00  2.0782160185858909e+00 1.0493926800046214e+00 0.0000000000000000e+00  1.9869503668864485e+00 1.2947399565297899e+00 0.0000000000000000e+00  2.1238387385055439e+00 1.2947429748354213e+00 0.0000000000000000e+00  1.9165991801590150e+00 1.0416034387435471e+00 0.0000000000000000e+00  1.8956756521866860e+00 1.1029204313601877e+00 0.0000000000000000e+00  1.7523273793998329e+00 1.0880061743719827e+00 0.0000000000000000e+00  1.7464815678732215e+00 1.1445127361592797e+00 0.0000000000000000e+00  1.7754057362565541e+00 1.2569657880678484e+00 0.0000000000000000e+00  1.8698138931040429e+00 1.2845666231060466e+00 0.0000000000000000e+00  1.6105214592507666e+00 1.1162873521439294e+00 0.0000000000000000e+00  1.6099619318041760e+00 1.1504874898035160e+00 0.0000000000000000e+00  1.4801024111226708e+00 1.1235850540587249e+00 0.0000000000000000e+00  1.5062541426336866e+00 1.1444679431235201e+00 0.0000000000000000e+00  1.6701398846707727e+00 1.1889482359062034e+00 0.0000000000000000e+00  1.7509842378024967e+00 1.0381665533355346e+00 0.0000000000000000e+00  1.3512426127309416e+00 1.1150509353336762e+00 0.0000000000000000e+00  1.3780933791702183e+00 1.1173692779452347e+00 0.0000000000000000e+00  1.4963604631151122e+00 1.1328989741901285e+00 0.0000000000000000e+00  1.6101635144259041e+00 1.1011896417253237e+00 0.0000000000000000e+00  1.3991147807554445e+00 1.1020533447852521e+00 0.0000000000000000e+00  1.4935406009632608e+00 1.1042376013610193e+00 0.0000000000000000e+00  1.4148039100353098e+00 1.0779233152346079e+00 0.0000000000000000e+00  1.5043197201490466e+00 1.0684014500551597e+00 0.0000000000000000e+00  1.6040604497470174e+00 9.8977695113725506e-01 0.0000000000000000e+00  1.4268164341073215e+00 1.0538206944477224e+00 0.0000000000000000e+00  1.7173969029099585e+00 9.0226078183344738e-01 0.0000000000000000e+00  1.6560705883382365e+00 9.3002724479975440e-01 0.0000000000000000e+00  1.7984526851952092e+00 8.8452049088483176e-01 0.0000000000000000e+00  1.8997119795499418e+00 8.7092799684314781e-01 0.0000000000000000e+00  1.4996791413271964e+00 1.0337513263879878e+00 0.0000000000000000e+00  1.4361203271559384e+00 1.0377083083795919e+00 0.0000000000000000e+00  1.5082582056580403e+00 1.0190041461005019e+00 0.0000000000000000e+00  1.4494327286397639e+00 1.0347278324179698e+00 0.0000000000000000e+00  1.5413564826250339e+00 1.0220445007758583e+00 0.0000000000000000e+00  1.4699806854148905e+00 1.0468788030115523e+00 0.0000000000000000e+00  1.3467101963443286e+00 1.0519160861732981e+00 0.0000000000000000e+00  1.5681991000720792e+00 1.0482117190182341e+00 0.0000000000000000e+00  1.4995418943178960e+00 1.0707997865879018e+00 0.0000000000000000e+00  1.6342271525690151e+00 1.0192982959823025e+00 0.0000000000000000e+00  1.4694178550008736e+00 1.0939841981983438e+00 0.0000000000000000e+00  1.3698434912723019e+00 1.0488070721297107e+00 0.0000000000000000e+00  2.8463248268170327e+00 1.0431044972428207e+00 0.0000000000000000e+00