<?xml version="1.0"?>
<VTKFile type="UnstructuredGrid"  version="0.1"  >
<UnstructuredGrid>
<Piece  NumberOfPoints="786" NumberOfCells="1448">
<Points>
<DataArray  type="Float64"  NumberOfComponents="3"  format="ascii">0 0 0  2 0 0  2 1 0  0 1 0  1.1 0.5 0  1 0.6 0  0.9 0.5 0  1 0.4 0  0.0999999999997993 0 0  0.1999999999996293 0 0  0.2999999999994072 0 0  0.3999999999991157 0 0  0.4999999999988242 0 0  0.5999999999985328 0 0  0.6999999999982413 0 0  0.7999999999979498 0 0  0.8999999999976585 0 0  0.9999999999973885 0 0  1.09999999999763 0 0  1.199999999997894 0 0  1.299999999998157 0 0  1.39999999999842 0 0  1.499999999998683 0 0  1.599999999998947 0 0  1.69999999999921 0 0  1.799999999999474 0 0  1.899999999999737 0 0  2 0.09999999999981467 0  2 0.1999999999995579 0  2 0.2999999999992664 0  2 0.3999999999989749 0  2 0.4999999999986943 0  2 0.5999999999989468 0  2 0.69999999999921 0  2 0.7999999999994734 0  2 0.8999999999997368 0  1.899999999999584 1 0  1.799999999999167 1 0  1.699999999999306 1 0  1.6 1 0  1.500000000000693 1 0  1.400000000001387 1 0  1.30000000000208 1 0  1.200000000002774 1 0  1.100000000003467 1 0  1.000000000004117 1 0  0.9000000000037447 1 0  0.8000000000033287 1 0  0.7000000000029127 1 0  0.6000000000024965 1 0  0.5000000000020806 1 0  0.4000000000016644 1 0  0.3000000000012482 1 0  0.200000000000832 1 0  0.100000000000416 1 0  0 0.8999999999995836 0  0 0.7999999999999998 0  0 0.7000000000006934 0  0 0.6000000000013869 0  0 0.5000000000020587 0  0 0.4000000000016644 0  0 0.3000000000012483 0  0 0.2000000000008322 0  0 0.100000000000416 0  1.099518472670127 0.5098017140034429 0  1.098078528048338 0.5195090321613164 0  1.095694033567837 0.5290284677431957 0  1.092387953227357 0.5382683432938981 0  1.088192126382747 0.5471396737800499 0  1.083146961160831 0.55555702340586 0  1.077301045259354 0.5634393285100919 0  1.070710677995721 0.5707106782415886 0  1.063439328380613 0.577301045365614 0  1.055557023280134 0.5831469612448383 0  1.047139673716648 0.5881921264166364 0  1.038268343315128 0.5923879532185636 0  1.029028467780885 0.5956940335564038 0  1.019509032285118 0.5980785280237129 0  1.009801714131028 0.5995184726575605 0  0.9901982859431546 0.5995184726648668 0  0.9804909677481907 0.5980785280303383 0  0.970971532165869 0.5956940335402517 0  0.9617316566373946 0.5923879531988978 0  0.9528603261353096 0.5881921263375061 0  0.9444429765027096 0.5831469610997391 0  0.9365606713723549 0.5773010451628802 0  0.9292893216707772 0.5707106779080866 0  0.922698954506381 0.5634393282246387 0  0.9168530386494218 0.5555570231218832 0  0.9118078734719752 0.547139673508255 0  0.9076120466660803 0.5382683430366337 0  0.9043059663774589 0.5290284675628592 0  0.9019214719343366 0.5195090320742178 0  0.9004815273214857 0.50980171391828 0  0.9004815273375527 0.4901982859185888 0  0.9019214719746116 0.4804909677233057 0  0.9043059664587256 0.4709715321692402 0  0.9076120468105043 0.461731656614696 0  0.9118078736419248 0.4528603261737919 0  0.9168530388622553 0.444442976559589 0  0.9226989547882446 0.4365606714319095 0  0.9292893220390532 0.4292893217236373 0  0.9365606716990126 0.4226989545690388 0  0.9444429768352933 0.4168530386780356 0  0.9528603264384798 0.4118078735004461 0  0.9617316569325829 0.4076120466788312 0  0.9709715324087222 0.4043059663860796 0  0.9804909679254118 0.4019214719344102 0  0.9901982860830213 0.4004815273213576 0  1.009801714143769 0.4004815273436945 0  1.019509032315507 0.401921471982332 0  1.029028467848558 0.4043059664641246 0  1.038268343464751 0.4076120468434122 0  1.047139673950703 0.4118078737084688 0  1.055557023505153 0.4168530389055144 0  1.063439328631151 0.4226989548399974 0  1.070710678317589 0.4292893220802799 0  1.077301045484115 0.4365606717637809 0  1.083146961347192 0.4444429768730498 0  1.088192126513248 0.4528603264640991 0  1.092387953295835 0.4617316568714208 0  1.095694033580114 0.470971532297277 0  1.098078528048756 0.4804909678407809 0  1.099518472667619 0.4901982859710989 0  0.07677024053808743 0.5478606856579716 0  1.925073517161635 0.452742612476927 0  1.45022711366683 0.07551452397399896 0  0.5583542642766637 0.9149973005417038 0  0.55781552435296 0.0809781337687418 0  1.448554822594755 0.9160897864173811 0  1.264218750908538 0.9194723759348866 0  0.7441154309711006 0.09651100655335992 0  0.7409349128969822 0.9163790003689829 0  1.259936993086601 0.07649138456316028 0  1.057243800047625 0.9173984658808033 0  0.9528064485264065 0.08709939771557765 0  1.65450424927898 0.07968369992876685 0  0.3350555714846132 0.9119330203094886 0  1.649999999999653 0.913397459622157 0  0.3471155030378571 0.08424464099519172 0  0.09048327532679781 0.342695824824171 0  1.90486078996149 0.6519885492832782 0  0.08651904419087442 0.7406693627296941 0  1.921153069547606 0.2471255192924661 0  1.849999999999375 0.9133974596214359 0  0.08892505809117129 0.1551198064861514 0  0.1536493667713706 0.9221114264763826 0  1.847771239097244 0.1018406639070294 0  1.133177340652713 0.9164644595076992 0  1.197907915877831 0.8373494507936589 0  1.089418249734909 0.8468476608633259 0  1.026904305959213 0.843155467904775 0  1.058509177839653 0.7898696555398559 0  1.036462842431551 0.6030788784945602 0  1.01582723007114 0.6074891203311941 0  1.005463560979325 0.7850251426244315 0  0.9839789939995556 0.6087598479731584 0  1.034852113609194 0.7390529327437592 0  1.081845199190079 0.7428313895987482 0  0.9870160909191689 0.7359729944312435 0  0.9562537000373408 0.7754738339672571 0  0.9419917505622891 0.73316407553211 0  0.9535259411262335 0.5982572161394235 0  0.9100794915528146 0.7678036905570957 0  0.8954222952521398 0.7225449594988862 0  1.064285535854376 0.7046955485140816 0  1.101907138463694 0.7054492716491996 0  1.064674291387108 0.5874814646800455 0  0.8633603681569776 0.7595869145407732 0  0.8504381193076169 0.7157398372882123 0  0.9276896060134657 0.5816832690042587 0  0.8732267678367636 0.6884383036828603 0  0.8363594121961939 0.6770573507402828 0  0.8081360398401592 0.7069615781416229 0  0.7970033999811396 0.6655959407702806 0  0.7643475439484503 0.6956088639783583 0  0.7527496155027761 0.6503726732150366 0  0.7153243689580188 0.6837311764258092 0  0.7018890548775067 0.6325858677936558 0  0.7434760916957237 0.6044216431758882 0  0.6985297076876603 0.5720758033488899 0  0.8946734738442462 0.5263482915166204 0  0.6461828249709232 0.6149911022530776 0  0.6345194388787642 0.5549506306609305 0  0.683105523638134 0.505806628942558 0  0.5832252517228638 0.5965297036641987 0  0.570606280163754 0.5267176448653352 0  0.891312956363941 0.5051779165571759 0  0.9016637542093587 0.5465953935638876 0  0.5147261647157551 0.5742280389591969 0  0.5025660862413626 0.5020608210399269 0  0.5596709244439364 0.4537518920713086 0  0.4889919065799766 0.4286664957385582 0  0.4442627076705054 0.5500305571915355 0  0.8269676596822488 0.6384843288659166 0  0.5492394248242352 0.3813545446037701 0  0.4582825971671352 0.6253347122359904 0  0.3857742462291885 0.6022252429624919 0  0.3702585642668961 0.5320364146148016 0  0.4751617864897376 0.3531114427783552 0  1.08166571188387 0.6755467137542313 0  1.11623029786944 0.6705444049811968 0  1.138275069954226 0.7036542736600724 0  1.154887340451525 0.6705009512124016 0  1.087716777168 0.5644802338388071 0  1.175933338357465 0.7020855092572715 0  1.194841425198374 0.665771677843001 0  1.220074592875894 0.7063323354732131 0  1.238892672326111 0.6606713148811754 0  1.206577789201751 0.6217179259308819 0  1.257868089563633 0.6210981900955477 0  1.102042960352312 0.5365115550803543 0  1.222801932836619 0.5737997381172237 0  1.278262245655876 0.5702026224421489 0  1.246998418993937 0.5271195988524385 0  1.301557111205262 0.5205418488410092 0  1.267024306703841 0.4782158188287975 0  1.338402661746239 0.5704669453287129 0  1.362966298534547 0.5123897615832806 0  1.403354402766569 0.5642571711070872 0  1.430522129451901 0.5015548286848412 0  1.107320975518791 0.4737286721375125 0  1.108425421493449 0.4946680972350466 0  1.107773757200569 0.5161308436391965 0  1.473249235546273 0.5573878792959176 0  1.499418439132614 0.4918991294604823 0  1.546564825548989 0.5492562345738241 0  1.575895206528449 0.4745908755834634 0  1.268698592065982 0.7031376258990776 0  1.453495997059882 0.4233145347019561 0  1.516656003063019 0.6195153289297529 0  1.594397736928598 0.6119594721097178 0  1.134382572035891 0.6450740439088278 0  0.5979934467012623 0.6599410044933398 0  1.05180061510041 0.6729536231519335 0  0.96802174272085 0.7053725235394964 0  1.182903293803225 0.5847427085452477 0  1.220858549146987 0.4901268090250945 0  1.226883692659373 0.4405207261125593 0  1.284213260904772 0.4274681057455967 0  1.245770126442909 0.3899184278737861 0  1.300890663838484 0.3738287961319654 0  1.196702526676082 0.3990452440342164 0  1.080659500225728 0.426495636729507 0  1.093321209724305 0.4440687730730662 0  1.210513760838627 0.3539827123626146 0  1.167188252850954 0.3658705173337491 0  1.178474853207407 0.3225980905870086 0  1.133509120258191 0.3381500798389104 0  1.046337701341191 0.4020271627553147 0  1.063238529941497 0.4131148280802575 0  1.146845372866415 0.2924452407831609 0  1.107075538460627 0.3044270004620791 0  1.116750139639492 0.2606156331827951 0  1.07071221696015 0.2786633636660513 0  1.016117269214498 0.3923584698035796 0  1.22235004311975 0.3066299227101633 0  1.084342282490327 0.225998504811933 0  1.037398023604232 0.2407425232788703 0  1.024161075848878 0.2848075503493911 0  0.9840975983958428 0.3927947155450817 0  0.992838557306712 0.254522396709938 0  0.9855813873041455 0.29285685215039 0  0.9542648485702723 0.2676352089372322 0  0.9505837183166822 0.3076312417611508 0  0.9442214507514448 0.4069121207276981 0  0.9176919443314837 0.2806527009906461 0  0.9067428858683297 0.4439472553721965 0  0.9192940796610765 0.4268417297656744 0  0.8973203041900489 0.4629151573762476 0  0.8923596548943471 0.4840367207366032 0  0.9102904500306963 0.3178186467564401 0  0.8801638496558747 0.292820116
[...]
<PointData  Vectors="f_665"> 
<DataArray  type="Float64"  Name="f_665"  NumberOfComponents="3" format="ascii">1.0000000000000000e+00 1.0000000000000000e+00 0.0000000000000000e+00  1.3533528323661270e-01 1.0000000000000000e+00 0.0000000000000000e+00  1.3533528323661270e-01 -1.0000000000000000e+00 0.0000000000000000e+00  5.5841185484090405e-01 8.9436069435274101e-01 0.0000000000000000e+00  3.9558543724310186e-01 9.1345318736242098e-01 0.0000000000000000e+00  4.9230153721342468e-01 1.0016119855490944e+00 0.0000000000000000e+00  6.0687439718507741e-01 1.0239270592122980e+00 0.0000000000000000e+00  5.3718816847888406e-01 9.5182075408992339e-01 0.0000000000000000e+00  9.9501247919270230e-01 1.0000000000000000e+00 0.0000000000000000e+00  9.8019867330682786e-01 1.0000000000000000e+00 0.0000000000000000e+00  9.5599748183326994e-01 1.0000000000000000e+00 0.0000000000000000e+00  9.2311634638696227e-01 1.0000000000000000e+00 0.0000000000000000e+00  8.8249690258511426e-01 1.0000000000000000e+00 0.0000000000000000e+00  8.3527021141200730e-01 1.0000000000000000e+00 0.0000000000000000e+00  7.8270453824283182e-01 1.0000000000000000e+00 0.0000000000000000e+00  7.2614903707488210e-01 1.0000000000000000e+00 0.0000000000000000e+00  6.6697681085988003e-01 1.0000000000000000e+00 0.0000000000000000e+00  6.0653065971421738e-01 9.9999999999999989e-01 0.0000000000000000e+00  5.4607442664113304e-01 1.0000000000000000e+00 0.0000000000000000e+00  4.8675225596120175e-01 1.0000000000000000e+00 0.0000000000000000e+00  4.2955735821176827e-01 1.0000000000000000e+00 0.0000000000000000e+00  3.7531109885222969e-01 1.0000000000000000e+00 0.0000000000000000e+00  3.2465246735899100e-01 1.0000000000000000e+00 0.0000000000000000e+00  2.7803730045366259e-01 1.0000000000000000e+00 0.0000000000000000e+00  2.3574607655618018e-01 1.0000000000000000e+00 0.0000000000000000e+00  1.9789869908380203e-01 1.0000000000000000e+00 0.0000000000000000e+00  1.6447445657723708e-01 9.9999999999999989e-01 0.0000000000000000e+00  1.3533528323661270e-01 9.5105651629533350e-01 0.0000000000000000e+00  1.3533528323661270e-01 8.0901699437576380e-01 0.0000000000000000e+00  1.3533528323661270e-01 5.8778525229433765e-01 0.0000000000000000e+00  1.3533528323661270e-01 3.0901699437801039e-01 0.0000000000000000e+00  1.3533528323661270e-01 4.1018912191200604e-12 0.0000000000000000e+00  1.3533528323661270e-01 -3.0901699437180058e-01 0.0000000000000000e+00  1.3533528323661270e-01 -5.8778525229046541e-01 0.0000000000000000e+00  1.3533528323661270e-01 -8.0901699437397467e-01 0.0000000000000000e+00  1.3533528323661270e-01 -9.5105651629489807e-01 0.0000000000000000e+00  5.3387498447512027e-01 -5.7019348737259079e-01 0.0000000000000000e+00  6.8356794495806472e-01 -1.7809455315180581e-01 0.0000000000000000e+00  7.3351030716577004e-01 1.3887458047924234e-01 0.0000000000000000e+00  7.3848833639024936e-01 3.7603018033005925e-01 0.0000000000000000e+00  7.2534322307784549e-01 5.5601014403247806e-01 0.0000000000000000e+00  7.0654360017658402e-01 6.9266309622411959e-01 0.0000000000000000e+00  6.8679251670596975e-01 7.9762294643187248e-01 0.0000000000000000e+00  6.6797686269392031e-01 8.7911626299100731e-01 0.0000000000000000e+00  6.5023892877644907e-01 9.4063380223569693e-01 0.0000000000000000e+00  6.3226510024521720e-01 9.8589089116823936e-01 0.0000000000000000e+00  6.1391424121791893e-01 1.0129696600817204e+00 0.0000000000000000e+00  5.9910401244841816e-01 1.0249311837411204e+00 0.0000000000000000e+00  5.8784326038948986e-01 1.0252422850196425e+00 0.0000000000000000e+00  5.7934099514247439e-01 1.0179951600813864e+00 0.0000000000000000e+00  5.7275781338077580e-01 1.0052246234893198e+00 0.0000000000000000e+00  5.6750925046763756e-01 9.8821932084366537e-01 0.0000000000000000e+00  5.6316984016392480e-01 9.6719656324097458e-01 0.0000000000000000e+00  5.6018473669680091e-01 9.4366069835740407e-01 0.0000000000000000e+00  5.5871961907000234e-01 9.1887592637891546e-01 0.0000000000000000e+00  5.8231937634349762e-01 8.9402321355609959e-01 0.0000000000000000e+00  6.0590095061353988e-01 8.9252446268841390e-01 0.0000000000000000e+00  6.3096059076695543e-01 8.8932713369343797e-01 0.0000000000000000e+00  6.5973864875097288e-01 8.8478998326869118e-01 0.0000000000000000e+00  6.9467440616039322e-01 8.7983155813688363e-01 0.0000000000000000e+00  7.3811722435095639e-01 8.7688432988140064e-01 0.0000000000000000e+00  7.9070693992815411e-01 8.7921735087365649e-01 0.0000000000000000e+00  8.5593657317467331e-01 8.9197578111214382e-01 0.0000000000000000e+00  9.2917460006527319e-01 9.2491668352880241e-01 0.0000000000000000e+00  3.9476687900885138e-01 9.1603980505347438e-01 0.0000000000000000e+00  3.9520488894307232e-01 9.1938454156123506e-01 0.0000000000000000e+00  3.9687924808162806e-01 9.2342357178432699e-01 0.0000000000000000e+00  3.9978881696983298e-01 9.2812679479272187e-01 0.0000000000000000e+00  4.0384491366911757e-01 9.3331832221372169e-01 0.0000000000000000e+00  4.0892022635109349e-01 9.3894186087575349e-01 0.0000000000000000e+00  4.1489620777249425e-01 9.4501719538080653e-01 0.0000000000000000e+00  4.2170986160520502e-01 9.5141116020921479e-01 0.0000000000000000e+00  4.2925946371641249e-01 9.5796906393073689e-01 0.0000000000000000e+00  4.3737186538387562e-01 9.6460695927730566e-01 0.0000000000000000e+00  4.4595957838635497e-01 9.7125781984803028e-01 0.0000000000000000e+00  4.5491982399942194e-01 9.7784101073894902e-01 0.0000000000000000e+00  4.6405692086651296e-01 9.8422425704408434e-01 0.0000000000000000e+00  4.7336278599285353e-01 9.9037711724532251e-01 0.0000000000000000e+00  4.8281411481044512e-01 9.9620510691775688e-01 0.0000000000000000e+00  5.0163549895254100e-01 1.0066341641460173e+00 0.0000000000000000e+00  5.1080346068606886e-01 1.0111706456687934e+00 0.0000000000000000e+00  5.1975961663004966e-01 1.0153101859107612e+00 0.0000000000000000e+00  5.2857786602282542e-01 1.0189085694497197e+00 0.0000000000000000e+00  5.3724371946667304e-01 1.0220876256213101e+00 0.0000000000000000e+00  5.4564997246772950e-01 1.0246579947225538e+00 0.0000000000000000e+00  5.5377444738788106e-01 1.0267393292052711e+00 0.0000000000000000e+00  5.6143482369501330e-01 1.0283663063586126e+00 0.0000000000000000e+00  5.6889428912980500e-01 1.0294870865031047e+00 0.0000000000000000e+00  5.7591170063385011e-01 1.0300874238649378e+00 0.0000000000000000e+00  5.8247074544026178e-01 1.0301974760477293e+00 0.0000000000000000e+00  5.8854467944672140e-01 1.0298235279605112e+00 0.0000000000000000e+00  5.9405547631580069e-01 1.0290016999264517e+00 0.0000000000000000e+00  5.9899193454490607e-01 1.0277627687453279e+00 0.0000000000000000e+00  6.0329698855584435e-01 1.0260535307087193e+00 0.0000000000000000e+00  6.0967758389812121e-01 1.0214004883958645e+00 0.0000000000000000e+00  6.1166321115136724e-01 1.0184703495098946e+00 0.0000000000000000e+00  6.1273819315574740e-01 1.0151631137760710e+00 0.0000000000000000e+00  6.1286417157683359e-01 1.0115050239626653e+00 0.0000000000000000e+00  6.1197621067019814e-01 1.0075014665722613e+00 0.0000000000000000e+00  6.1007627941895759e-01 1.0031733834801368e+00 0.0000000000000000e+00  6.0710216569127129e-01 9.9859470842679277e-01 0.0000000000000000e+00  6.0308638185493524e-01 9.9383566569660542e-01 0.0000000000000000e+00  5.9805776604965799e-01 9.8889599817674778e-01 0.0000000000000000e+00  5.9202887810469229e-01 9.8378747603224426e-01 0.0000000000000000e+00  5.8499593678639639e-01 9.7854142921274556e-01 0.0000000000000000e+00  5.7700124865677538e-01 9.7320318170219144e-01 0.0000000000000000e+00  5.6816115705523895e-01 9.6784225957341086e-01 0.0000000000000000e+00  5.5849739636002937e-01 9.6246232361974826e-01 0.0000000000000000e+00  5.4812801818228596e-01 9.5710937015317843e-01 0.0000000000000000e+00  5.2575269414166936e-01 9.4666148320312027e-01 0.0000000000000000e+00  5.1402320916041344e-01 9.4171910406211146e-01 0.0000000000000000e+00  5.0225213285433878e-01 9.3695699856125214e-01 0.0000000000000000e+00  4.9034230900496911e-01 9.3241480218916251e-01 0.0000000000000000e+00  4.7849879702362197e-01 9.2810452677300059e-01 0.0000000000000000e+00  4.6705820098515455e-01 9.2425274654832767e-01 0.0000000000000000e+00  4.5590783472241220e-01 9.2064876652946204e-01 0.0000000000000000e+00  4.4550098743815852e-01 9.1750655751003229e-01 0.0000000000000000e+00  4.3566662303573250e-01 9.1486757269554919e-01 0.0000000000000000e+00  4.2665152948717883e-01 9.1276750540991614e-01 0.0000000000000000e+00  4.1861617503467330e-01 9.1123352455901119e-01 0.0000000000000000e+00  4.1165033542191520e-01 9.1031317843019288e-01 0.0000000000000000e+00  4.0580126557309698e-01 9.1007377811662249e-01 0.0000000000000000e+00  4.0119723616622438e-01 9.1042687515557974e-01 0.0000000000000000e+00  3.9776891249713675e-01 9.1151320352262777e-01 0.0000000000000000e+00  6.7675927340822173e-01 9.0855712603733463e-01 0.0000000000000000e+00  1.1752071139804909e-01 2.2314511426778205e-01 0.0000000000000000e+00  3.2421369198010735e-01 9.5361958461264518e-01 0.0000000000000000e+00  5.8599164275751225e-01 1.0131083365355555e+00 0.0000000000000000e+00  8.0921255895461830e-01 1.0050624482183645e+00 0.0000000000000000e+00  6.0348692418671557e-01 6.3174817334038880e-01 0.0000000000000000e+00  6.1208039812955461e-01 8.2862195899484548e-01 0.0000000000000000e+00  7.1259447806928422e-01 1.0059097956631278e+00 0.0000000000000000e+00  5.9005682634624823e-01 1.0258879772257559e+00 0.0000000000000000e+00  4.2665493109305480e-01 9.7422519029364396e-01 0.0000000000000000e+00  6.0437743158912938e-01 9.6181158504337760e-01 0.0000000000000000e+00  6.0046783946062166e-01 9.9522645516267716e-01 0.0000000000000000e+00  2.3259430197142703e-01 9.2112394245773421e-01 0.0000000000000000e+00  5.8237068916202450e-01 9.7488728878410968e-01 0.0000000000000000e+00  5.5488678353960919e-01 2.6979058918060156e-01 0.0000000000000000e+00  8.8453208846473075e-01 9.9790248583058794e-01 0.0000000000000000e+00  7.6592477910512924e-01 9.1966641814401751e-01 0.0000000000000000e+00  1.3972163689540992e-01 -1.8860762228582587e-01 0.0000000000000000e+00  6.2036339578680511e-01 9.1374250621129571e-01 0.0000000000000000e+00  1.3368918021601434e-01 6.7227643312886931e-01 0.0000000000000000e+00  3.8886237179712380e-01 -3.4797543150900989e-01 0.0000000000000000e+00  8.8529803546370123e-01 9.4922160589219395e-01 0.0000000000000000e+00  5.7773875947013209e-01 9.3214831924582342e-01 0.0000000000000000e+00  1.7217171663591649e-01 8.7859884377316588e-01 0.0000000000000000e+00  6.0628945273846901e-01 9.2164371216842234e-01 0.0000000000000000e+00  5.5393978172099978e-01 8.7809541506438893e-01 0.0000000000000000e+00  5.7032571422858946e-01 9.4563527881002740e-01 0.0000000000000000e+00  5.7309529641037771e-01 9.7541753425949629e-01 0.0000000000000000e+00  5.4787269686019802e-01 9.6163886123921249e-01 0.0000000000000000e+00  4.6689825142372582e-01 9.7852172871574827e-01 0.0000000000000000e+00  4.8378447878437569e-01 9.9232299505526378e-01 0.0000000000000000e+00  5.5412316527644190e-01 9.8535348869705097e-01 0.0000000000000000e+00  5.0920159605463500e-01 1.0089817092696913e+00 0.0000000000000000e+00  5.3236828573819506e-01 9.7426635759154556e-01 0.0000000000000000e+00  5.2279779256637116e-01 9.4940058379911663e-01 0.0000000000000000e+00  5.4173170054666142e-01 9.9477781279186173e-01 0.0000000000000000e+00  5.5835461475147230e-01 1.0023330768918990e+00 0.0000000000000000e+00  5.5049408674132794e-01 1.0083715138531295e+00 0.0000000000000000e+00  5.3281744538016995e-01 1.0201720048139939e+00 0.0000000000000000e+00  5.6350010682771323e-01 1.0132195561889028e+00 0.0000000000000000e+00  5.5849870420141512e-01 1.0171658948624727e+00 0.0000000000000000e+00  5.1076116891398604e-01 9.5929410392753223e-01 0.0000000000000000e+00  4.9968043476608631e-01 9.3702036609339012e-01 0.0000000000000000e+00  4.3978768344045116e-01 9.5653093599637018e-01 0.0000000000000000e+00  5.6942201986807184e-01 1.0197348750292854e+00 0.0000000000000000e+00  5.6750906824195380e-01 1.0210850395321296e+00 0.0000000000000000e+00  5.5470863208591759e-01 1.0253606645492752e+00 0.0000000000000000e+00  5.6056991357866415e-01 1.0199427388942515e+00 0.0000000000000000e+00  5.7005550156025897e-01 1.0213130263671211e+00 0.0000000000000000e+00  5.7611322676705778e-01 1.0224562659859604e+00 0.0000000000000000e+00  5.8020796137332886e-01 1.0214707866006647e+00 0.0000000000000000e+00  5.8498148208985390e-01 1.0223875373853972e+00 0.0000000000000000e+00  5.9137479482596311e-01 1.0208823944586591e+00 0.0000000000000000e+00  5.9455811038903372e-01 1.0212478608205184e+00 0.0000000000000000e+00  6.0325762537059457e-01 1.0195929794945784e+00 0.0000000000000000e+00  6.0020501919906910e-01 1.0194918374342599e+00 0.0000000000000000e+00  6.1441588331166574e-01 1.0185078016666893e+00 0.0000000000000000e+00  5.9573525054828647e-01 1.0248994784980987e+00 0.0000000000000000e+00  6.1522801195254484e-01 1.0173160027373509e+00 0.0000000000000000e+00  6.2853391286435722e-01 1.0163399597410707e+00 0.0000000000000000e+00  6.3045172261106774e-01 1.0181118396709046e+00 0.0000000000000000e+00  6.2778152272790755e-01 1.0131372486494352e+00 0.0000000000000000e+00  6.4490323551168527e-01 1.0122647800455564e+00 0.0000000000000000e+00  6.0507643858897431e-01 1.0223645137072255e+00 0.0000000000000000e+00  5.8384796182642207e-01 1.0263039282217385e+00 0.0000000000000000e+00  6.4161852490723992e-01 1.0065466145591979e+00 0.0000000000000000e+00  6.6158117775522662e-01 1.0058915713702454e+00 0.0000000000000000e+00  6.6509612453132627e-01 1.0119149187623520e+00 0.0000000000000000e+00  6.8544671608777230e-01 1.0053544436377515e+00 0.0000000000000000e+00  6.5608684962412434e-01 9.9760751885437615e-01 0.0000000000000000e+00  5.7546839554804108e-01 1.0204543683393346e+00 0.0000000000000000e+00  6.8799431546786050e-01 1.0114689309695997e+00 0.0000000000000000e+00  6.3588969468308409e-01 9.9877515083553592e-01 0.0000000000000000e+00  6.4771566607952180e-01 9.8710210322347391e-01 0.0000000000000000e+00  6.6895037243740718e-01 9.8571052584199670e-01 0.0000000000000000e+00  7.1420738048569099e-01 1.0048084190629258e+00 0.0000000000000000e+00  4.9156672757955799e-01 9.4848106283735323e-01 0.0000000000000000e+00  4.7689436673037017e-01 9.2674863049341993e-01 0.0000000000000000e+00  4.8747895594234925e-01 9.1467365886605578e-01 0.0000000000000000e+00  4.6398511841362816e-01 9.0311915080759697e-01 0.0000000000000000e+00  4.1551168982340519e-01 9.3626507513830171e-01 0.0000000000000000e+00  4.7524789625533864e-01 8.9096478771533716e-01 0.0000000000000000e+00  4.4861294768566867e-01 8.7847762149591913e-01 0.0000000000000000e+00  4.6480326745390033e-01 8.6171264208308385e-01 0.0000000000000000e+00  4.3200448292267124e-01 8.5000738141163068e-01 0.0000000000000000e+00  4.2094909533312574e-01 8.7218704058702934e-01 0.0000000000000000e+00  4.0513674548923628e-01 8.4036491998292295e-01 0.0000000000000000e+00  3.9940926356125545e-01 9.2240440849114236e-01 0.0000000000000000e+00  3.9455814495294628e-01 8.6684949198602312e-01 0.0000000000000000e+00  3.7654445221986577e-01 8.3413694082648804e-01 0.0000000000000000e+00  3.7388962424391159e-01 8.6054317727303364e-01 0.0000000000000000e+00  3.5386046309179420e-01 8.2891181040676665e-01 0.0000000000000000e+00  3.6018314069214996e-01 8.5943108883807340e-01 0.0000000000000000e+00  3.5506859379260247e-01 7.9078035592674045e-01 0.0000000000000000e+00  3.2744468373149693e-01 7.8726902955921785e-01 0.0000000000000000e+00  3.2614545958942676e-01 7.3731068456553794e-01 0.0000000000000000e+00  2.9485520274226784e-01 7.3530608131435959e-01 0.0000000000000000e+00  4.0378269427405938e-01 9.1344471153241458e-01 0.0000000000000000e+00  3.9654566546923492e-01 9.1356874239916419e-01 0.0000000000000000e+00  3.9504154070317210e-01 9.1647880081586086e-01 0.0000000000000000e+00  2.9205938643101931e-01 6.7091092363041260e-01 0.0000000000000000e+00  2.6033892387554758e-01 6.7577778663731547e-01 0.0000000000000000e+00  2.5402816734513317e-01 5.9158316227938568e-01 0.0000000000000000e+00  2.2010097029112888e-01 6.0689835327650077e-01 0.0000000000000000e+00  4.4827767385196071e-01 8.2678272206461523e-01 0.0000000000000000e+00  2.7159030314710181e-01 7.5174009324482816e-01 0.0000000000000000e+00  2.9989703535490519e-01 5.9363202089074196e-01 0.0000000000000000e+00  2.5757236274364248e-01 4.8989689512434759e-01 0.0000000000000000e+00  4.5640311526789024e-01 9.1423786319682654e-01 0.0000000000000000e+00  6.1425304603615494e-01 1.0147487697663939e+00 0.0000000000000000e+00  5.0099548243807424e-01 9.6684523054085125e-01 0.0000000000000000e+00  5.3800074124456909e-01 1.0032802829396665e+00 0.0000000000000000e+00  4.0976161649765830e-01 8.8691045070483399e-01 0.0000000000000000e+00  3.7685110231209890e-01 8.8081889560330373e-01 0.0000000000000000e+00  3.7578630741578534e-01 8.8734034813103602e-01 0.0000000000000000e+00  3.5180240450874439e-01 8.6208256790392679e-01 0.0000000000000000e+00  3.7244770650330777e-01 8.8903668889056131e-01 0.0000000000000000e+00  3.4637772626946339e-01 8.6791260034349904e-01 0.0000000000000000e+00  3.9531309704821949e-01 9.0612679463338730e-01 0.0000000000000000e+00  4.4316057315684809e-01 9.1929443370382913e-01 0.0000000000000000e+00  4.2446277082070077e-01 9.1562111207081198e-01 0.0000000000000000e+00  3.9594177577316203e-01 9.0921321489566587e-01 0.0000000000000000e+00  4.1778665847452634e-01 9.1937162298545794e-01 0.0000000000000000e+00  4.1941429052763546e-01 9.2371341510496718e-01 0.0000000000000000e+00  4.4308773870475926e-01 9.3040027320737317e-01 0.0000000000000000e+00  4.8486593037804782e-01 9.3084140034802176e-01 0.0000000000000000e+00  4.6399689828655394e-01 9.2424952484518674e-01 0.0000000000000000e+00  4.4294675535861439e-01 9.3597425546302770e-01 0.0000000000000000e+00  4.6440134693796092e-01 9.4079757515341156e-01 0.0000000000000000e+00  4.6558972076032851e-01 9.4765621280780121e-01 0.0000000000000000e+00  4.8901005507878742e-01 9.5230941734973185e-01 0.0000000000000000e+00  5.1732993603932975e-01 9.4414799345683009e-01 0.0000000000000000e+00  3.9696295712204061e-01 9.1519771427511387e-01 0.0000000000000000e+00  4.8992835886577585e-01 9.5998785947200971e-01 0.0000000000000000e+00  5.1339722120158915e-01 9.6588855326089740e-01 0.0000000000000000e+00  5.1435269154542695e-01 9.6128659327294630e-01 0.0000000000000000e+00  5.4862163841051048e-01 9.6078685684661846e-01 0.0000000000000000e+00  5.3557686556495943e-01 9.7365334879896381e-01 0.0000000000000000e+00  5.3507442251047932e-01 9.7089302465075755e-01 0.0000000000000000e+00  5.5481521706054815e-01 9.8232885080183086e-01 0.0000000000000000e+00  5.5366027439016252e-01 9.8121715048967417e-01 0.0000000000000000e+00  5.8365961856693860e-01 9.8430750261011324e-01 0.0000000000000000e+00  5.7314939818512556e-01 9.9179000208216583e-01 0.0000000000000000e+00  6.0959893565314771e-01 1.0077927805303881e+00 0.0000000000000000e+00  6.0208660509061351e-01 9.9969990230087225e-01 0.0000000000000000e+00  6.1252984414101996e-01 1.0141660436727518e+00 0.0000000000000000e+00  6.1086931978597903e-01 1.0189306202244452e+00 0.0000000000000000e+00  5.7556367543147358e-01 9.9447219501178374e-01 0.0000000000000000e+00  5.9173636439793065e-01 1.0010373755997530e+00 0.0000000000000000e+00  5.9423534737610506e-01 1.0047867010612235e+00 0.0000000000000000e+00  6.0953667420409985e-01 1.0086049301488262e+00 0.0000000000000000e+00  6.1121503332256588e-01 1.0128097671308267e+00 0.0000000000000000e+00  6.2725758541948040e-01 1.0142464709344654e+00 0.0000000000000000e+00  5.9218725096196967e-01 9.9812904863745566e-01 0.0000000000000000e+00  6.2686799262708581e-01 1.0170615121521331e+00 0.0000000000000000e+00  6.4317454751811409e-01 1.0171978023676265e+00 0.0000000000000000e+00  6.1570282080343142e-01 1.0164330671943664e+00 0.0000000000000000e+00  4.4202195214712725e-01 9.4223221915730870e-01 0.0000000000000000e+00  6.2866836688298600e-01 1.0104864457724456e+00 0.0000000000000000e+00  5.7480797764962022e-01 1.0171214075033148e+00 0.0000000000000000e+00  3