<?xml version="1.0"?>
<VTKFile type="UnstructuredGrid"  version="0.1"  >
<UnstructuredGrid>
<Piece  NumberOfPoints="11833" NumberOfCells="23264">
<Points>
<DataArray  type="Float64"  NumberOfComponents="3"  format="ascii">0 0 0  1 0 0  1 1 0  0 1 0  0.009999999999981104 0 0  0.01999999999996237 0 0  0.02999999999994307 0 0  0.03999999999992186 0 0  0.04999999999989966 0 0  0.05999999999987837 0 0  0.06999999999986051 0 0  0.07999999999984518 0 0  0.0899999999998299 0 0  0.09999999999981463 0 0  0.1099999999997994 0 0  0.1199999999997832 0 0  0.1299999999997609 0 0  0.1399999999997328 0 0  0.1499999999997036 0 0  0.1599999999996745 0 0  0.1699999999996453 0 0  0.1799999999996162 0 0  0.189999999999587 0 0  0.1999999999995579 0 0  0.2099999999995288 0 0  0.2199999999994996 0 0  0.2299999999994704 0 0  0.2399999999994413 0 0  0.2499999999994121 0 0  0.259999999999383 0 0  0.2699999999993538 0 0  0.2799999999993247 0 0  0.2899999999992955 0 0  0.2999999999992664 0 0  0.3099999999992372 0 0  0.3199999999992081 0 0  0.329999999999179 0 0  0.3399999999991498 0 0  0.3499999999991207 0 0  0.3599999999990915 0 0  0.3699999999990624 0 0  0.3799999999990332 0 0  0.3899999999990041 0 0  0.3999999999989749 0 0  0.4099999999989458 0 0  0.4199999999989167 0 0  0.4299999999988875 0 0  0.4399999999988584 0 0  0.4499999999988292 0 0  0.4599999999988 0 0  0.4699999999987708 0 0  0.4799999999987418 0 0  0.4899999999987126 0 0  0.4999999999986943 0 0  0.5099999999987098 0 0  0.5199999999987361 0 0  0.5299999999987626 0 0  0.5399999999987888 0 0  0.5499999999988152 0 0  0.5599999999988415 0 0  0.5699999999988679 0 0  0.5799999999988942 0 0  0.5899999999989205 0 0  0.5999999999989468 0 0  0.6099999999989731 0 0  0.6199999999989995 0 0  0.6299999999990258 0 0  0.6399999999990521 0 0  0.6499999999990784 0 0  0.6599999999991049 0 0  0.6699999999991312 0 0  0.6799999999991574 0 0  0.6899999999991837 0 0  0.6999999999992101 0 0  0.7099999999992365 0 0  0.7199999999992628 0 0  0.7299999999992892 0 0  0.7399999999993154 0 0  0.7499999999993417 0 0  0.7599999999993681 0 0  0.7699999999993945 0 0  0.7799999999994207 0 0  0.789999999999447 0 0  0.7999999999994734 0 0  0.8099999999994998 0 0  0.8199999999995261 0 0  0.8299999999995523 0 0  0.8399999999995788 0 0  0.8499999999996051 0 0  0.8599999999996314 0 0  0.8699999999996577 0 0  0.8799999999996841 0 0  0.8899999999997104 0 0  0.8999999999997367 0 0  0.9099999999997631 0 0  0.9199999999997894 0 0  0.9299999999998156 0 0  0.939999999999842 0 0  0.9499999999998684 0 0  0.9599999999998947 0 0  0.969999999999921 0 0  0.9799999999999475 0 0  0.9899999999999737 0 0  1 0.009999999999981104 0  1 0.01999999999996237 0  1 0.02999999999994307 0  1 0.03999999999992186 0  1 0.04999999999989966 0  1 0.05999999999987837 0  1 0.06999999999986051 0  1 0.07999999999984518 0  1 0.0899999999998299 0  1 0.09999999999981463 0  1 0.1099999999997994 0  1 0.1199999999997832 0  1 0.1299999999997609 0  1 0.1399999999997328 0  1 0.1499999999997036 0  1 0.1599999999996745 0  1 0.1699999999996453 0  1 0.1799999999996162 0  1 0.189999999999587 0  1 0.1999999999995579 0  1 0.2099999999995288 0  1 0.2199999999994996 0  1 0.2299999999994704 0  1 0.2399999999994413 0  1 0.2499999999994121 0  1 0.259999999999383 0  1 0.2699999999993538 0  1 0.2799999999993247 0  1 0.2899999999992955 0  1 0.2999999999992664 0  1 0.3099999999992372 0  1 0.3199999999992081 0  1 0.329999999999179 0  1 0.3399999999991498 0  1 0.3499999999991207 0  1 0.3599999999990915 0  1 0.3699999999990624 0  1 0.3799999999990332 0  1 0.3899999999990041 0  1 0.3999999999989749 0  1 0.4099999999989458 0  1 0.4199999999989167 0  1 0.4299999999988875 0  1 0.4399999999988584 0  1 0.4499999999988292 0  1 0.4599999999988 0  1 0.4699999999987708 0  1 0.4799999999987418 0  1 0.4899999999987126 0  1 0.4999999999986943 0  1 0.5099999999987098 0  1 0.5199999999987361 0  1 0.5299999999987626 0  1 0.5399999999987888 0  1 0.5499999999988152 0  1 0.5599999999988415 0  1 0.5699999999988679 0  1 0.5799999999988942 0  1 0.5899999999989205 0  1 0.5999999999989468 0  1 0.6099999999989731 0  1 0.6199999999989995 0  1 0.6299999999990258 0  1 0.6399999999990521 0  1 0.6499999999990784 0  1 0.6599999999991049 0  1 0.6699999999991312 0  1 0.6799999999991574 0  1 0.6899999999991837 0  1 0.6999999999992101 0  1 0.7099999999992365 0  1 0.7199999999992628 0  1 0.7299999999992892 0  1 0.7399999999993154 0  1 0.7499999999993417 0  1 0.7599999999993681 0  1 0.7699999999993945 0  1 0.7799999999994207 0  1 0.789999999999447 0  1 0.7999999999994734 0  1 0.8099999999994998 0  1 0.8199999999995261 0  1 0.8299999999995523 0  1 0.8399999999995788 0  1 0.8499999999996051 0  1 0.8599999999996314 0  1 0.8699999999996577 0  1 0.8799999999996841 0  1 0.8899999999997104 0  1 0.8999999999997367 0  1 0.9099999999997631 0  1 0.9199999999997894 0  1 0.9299999999998156 0  1 0.939999999999842 0  1 0.9499999999998684 0  1 0.9599999999998947 0  1 0.969999999999921 0  1 0.9799999999999475 0  1 0.9899999999999737 0  0.9899999999999584 1 0  0.9799999999999167 1 0  0.9699999999998751 1 0  0.9599999999998334 1 0  0.9499999999997918 1 0  0.9399999999997501 1 0  0.9299999999997085 1 0  0.9199999999996669 1 0  0.9099999999996251 1 0  0.8999999999995835 1 0  0.8899999999995418 1 0  0.879999999999508 1 0  0.8699999999995218 1 0  0.8599999999995834 1 0  0.8499999999996528 1 0  0.8399999999997222 1 0  0.8299999999997916 1 0  0.819999999999861 1 0  0.8099999999999303 1 0  0.7999999999999997 1 0  0.7900000000000691 1 0  0.7800000000001385 1 0  0.7700000000002079 1 0  0.7600000000002772 1 0  0.7500000000003466 1 0  0.7400000000004161 1 0  0.7300000000004854 1 0  0.7200000000005549 1 0  0.7100000000006242 1 0  0.7000000000006936 1 0  0.690000000000763 1 0  0.6800000000008324 1 0  0.6700000000009018 1 0  0.660000000000971 1 0  0.6500000000010404 1 0  0.6400000000011098 1 0  0.6300000000011791 1 0  0.6200000000012484 1 0  0.6100000000013178 1 0  0.6000000000013872 1 0  0.5900000000014565 1 0  0.5800000000015259 1 0  0.5700000000015952 1 0  0.5600000000016645 1 0  0.5500000000017339 1 0  0.5400000000018033 1 0  0.5300000000018725 1 0  0.5200000000019419 1 0  0.5100000000020113 1 0  0.500000000002059 1 0  0.490000000002039 1 0  0.4800000000019974 1 0  0.4700000000019557 1 0  0.4600000000019141 1 0  0.4500000000018726 1 0  0.4400000000018309 1 0  0.4300000000017893 1 0  0.4200000000017478 1 0  0.4100000000017061 1 0  0.4000000000016645 1 0  0.3900000000016228 1 0  0.3800000000015813 1 0  0.3700000000015397 1 0  0.360000000001498 1 0  0.3500000000014565 1 0  0.3400000000014148 1 0  0.3300000000013732 1 0  0.3200000000013316 1 0  0.3100000000012899 1 0  0.3000000000012484 1 0  0.2900000000012067 1 0  0.2800000000011651 1 0  0.2700000000011236 1 0  0.2600000000010819 1 0  0.2500000000010403 1 0  0.2400000000009987 1 0  0.2300000000009571 1 0  0.2200000000009155 1 0  0.2100000000008738 1 0  0.2000000000008322 1 0  0.1900000000007906 1 0  0.180000000000749 1 0  0.1700000000007074 1 0  0.1600000000006658 1 0  0.1500000000006242 1 0  0.1400000000005825 1 0  0.130000000000541 1 0  0.1200000000004994 1 0  0.1100000000004577 1 0  0.1000000000004161 1 0  0.09000000000037445 1 0  0.08000000000033292 1 0  0.07000000000029127 1 0  0.06000000000024963 1 0  0.0500000000002081 1 0  0.04000000000016646 1 0  0.03000000000012482 1 0  0.02000000000008328 1 0  0.01000000000004164 1 0  0 0.9899999999999584 0  0 0.9799999999999167 0  0 0.9699999999998751 0  0 0.9599999999998334 0  0 0.9499999999997918 0  0 0.9399999999997501 0  0 0.9299999999997085 0  0 0.9199999999996669 0  0 0.9099999999996251 0  0 0.8999999999995835 0  0 0.8899999999995418 0  0 0.879999999999508 0  0 0.8699999999995218 0  0 0.8599999999995834 0  0 0.8499999999996528 0  0 0.8399999999997222 0  0 0.8299999999997916 0  0 0.819999999999861 0  0 0.8099999999999303 0  0 0.7999999999999997 0  0 0.7900000000000691 0  0 0.7800000000001385 0  0 0.7700000000002079 0  0 0.7600000000002772 0  0 0.7500000000003466 0  0 0.7400000000004161 0  0 0.7300000000004854 0  0 0.7200000000005549 0  0 0.7100000000006242 0  0 0.7000000000006936 0  0 0.690000000000763 0  0 0.6800000000008324 0  0 0.6700000000009018 0  0 0.660000000000971 0  0 0.6500000000010404 0  0 0.6400000000011098 0  0 0.6300000000011791 0  0 0.6200000000012484 0  0 0.6100000000013178 0  0 0.6000000000013872 0  0 0.5900000000014565 0  0 0.5800000000015259 0  0 0.5700000000015952 0  0 0.5600000000016645 0  0 0.5500000000017339 0  0 0.5400000000018033 0  0 0.5300000000018725 0  0 0.5200000000019419 0  0 0.5100000000020113 0  0 0.500000000002059 0  0 0.490000000002039 0  0 0.4800000000019974 0  0 0.4700000000019557 0  0 0.4600000000019141 0  0 0.4500000000018726 0  0 0.4400000000018309 0  0 0.4300000000017893 0  0 0.4200000000017478 0  0 0.4100000000017061 0  0 0.4000000000016645 0  0 0.3900000000016228 0  0 0.3800000000015813 0  0 0.3700000000015397 0  0 0.360000000001498 0  0 0.3500000000014565 0  0 0.3400000000014148 0  0 0.3300000000013732 0  0 0.3200000000013316 0  0 0.3100000000012899 0  0 0.3000000000012484 0  0 0.2900000000012067 0  0 0.2800000000011651 0  0 0.2700000000011236 0  0 0.2600000000010819 0  0 0.2500000000010403 0  0 0.2400000000009987 0  0 0.2300000000009571 0  0 0.2200000000009155 0  0 0.2100000000008738 0  0 0.2000000000008322 0  0 0.1900000000007906 0  0 0.180000000000749 0  0 0.1700000000007074 0  0 0.1600000000006658 0  0 0.1500000000006242 0  0 0.1400000000005825 0  0 0.130000000000541 0  0 0.1200000000004994 0  0 0.1100000000004577 0  0 0.1000000000004161 0  0 0.09000000000037445 0  0 0.08000000000033292 0  0 0.07000000000029127 0  0 0.06000000000024963 0  0 0.0500000000002081 0  0 0.04000000000016646 0  0 0.03000000000012482 0  0 0.02000000000008328 0  0 0.01000000000004164 0  0.4950000000020247 0.9913397459621618 0  0.009211990098867707 0.4961881723756173 0  0.504999999998702 0.008660254037843167 0  0.990998005876526 0.504174558101478 0  0.008805615027760829 0.5847550863993457 0  0.5850000000017108 0.9913397459623841 
[...]
<PointData  Scalars="f_161"> 
<DataArray  type="Float64"  Name="f_161"  format="ascii">0.0000000000000000e+00  0.0000000000000000e+00  0.0000000000000000e+00  0.0000000000000000e+00  0.0000000000000000e+00  0.0000000000000000e+00  0.0000000000000000e+00  0.0000000000000000e+00  0.0000000000000000e+00  0.0000000000000000e+00  0.0000000000000000e+00  0.0000000000000000e+00  0.0000000000000000e+00  0.0000000000000000e+00  0.0000000000000000e+00  0.0000000000000000e+00  0.0000000000000000e+00  0.0000000000000000e+00  0.0000000000000000e+00  0.0000000000000000e+00  0.0000000000000000e+00  0.0000000000000000e+00  0.0000000000000000e+00  0.0000000000000000e+00  0.0000000000000000e+00  0.0000000000000000e+00  0.0000000000000000e+00  0.0000000000000000e+00  0.0000000000000000e+00  0.0000000000000000e+00  0.0000000000000000e+00  0.0000000000000000e+00  0.0000000000000000e+00  0.0000000000000000e+00  0.0000000000000000e+00  0.0000000000000000e+00  0.0000000000000000e+00  0.0000000000000000e+00  0.0000000000000000e+00  0.0000000000000000e+00  0.0000000000000000e+00  0.0000000000000000e+00  0.0000000000000000e+00  0.0000000000000000e+00  0.0000000000000000e+00  0.0000000000000000e+00  0.0000000000000000e+00  0.0000000000000000e+00  0.0000000000000000e+00  0.0000000000000000e+00  0.0000000000000000e+00  0.0000000000000000e+00  0.0000000000000000e+00  0.0000000000000000e+00  0.0000000000000000e+00  0.0000000000000000e+00  0.0000000000000000e+00  0.0000000000000000e+00  0.0000000000000000e+00  0.0000000000000000e+00  0.0000000000000000e+00  0.0000000000000000e+00  0.0000000000000000e+00  0.0000000000000000e+00  0.0000000000000000e+00  0.0000000000000000e+00  0.0000000000000000e+00  0.0000000000000000e+00  0.0000000000000000e+00  0.0000000000000000e+00  0.0000000000000000e+00  0.0000000000000000e+00  0.0000000000000000e+00  0.0000000000000000e+00  0.0000000000000000e+00  0.0000000000000000e+00  0.0000000000000000e+00  0.0000000000000000e+00  0.0000000000000000e+00  0.0000000000000000e+00  0.0000000000000000e+00  0.0000000000000000e+00  0.0000000000000000e+00  0.0000000000000000e+00  0.0000000000000000e+00  0.0000000000000000e+00  0.0000000000000000e+00  0.0000000000000000e+00  0.0000000000000000e+00  0.0000000000000000e+00  0.0000000000000000e+00  0.0000000000000000e+00  0.0000000000000000e+00  0.0000000000000000e+00  0.0000000000000000e+00  0.0000000000000000e+00  0.0000000000000000e+00  0.0000000000000000e+00  0.0000000000000000e+00  0.0000000000000000e+00  0.0000000000000000e+00  0.0000000000000000e+00  0.0000000000000000e+00  0.0000000000000000e+00  0.0000000000000000e+00  0.0000000000000000e+00  0.0000000000000000e+00  0.0000000000000000e+00  0.0000000000000000e+00  0.0000000000000000e+00  0.0000000000000000e+00  0.0000000000000000e+00  0.0000000000000000e+00  0.0000000000000000e+00  0.0000000000000000e+00  0.0000000000000000e+00  0.0000000000000000e+00  0.0000000000000000e+00  0.0000000000000000e+00  0.0000000000000000e+00  0.0000000000000000e+00  0.0000000000000000e+00  0.0000000000000000e+00  0.0000000000000000e+00  0.0000000000000000e+00  0.0000000000000000e+00  0.0000000000000000e+00  0.0000000000000000e+00  0.0000000000000000e+00  0.0000000000000000e+00  0.0000000000000000e+00  0.0000000000000000e+00  0.0000000000000000e+00  0.0000000000000000e+00  0.0000000000000000e+00  0.0000000000000000e+00  0.0000000000000000e+00  0.0000000000000000e+00  0.0000000000000000e+00  0.0000000000000000e+00  0.0000000000000000e+00  0.0000000000000000e+00  0.0000000000000000e+00  0.0000000000000000e+00  0.0000000000000000e+00  0.0000000000000000e+00  0.0000000000000000e+00  0.0000000000000000e+00  0.0000000000000000e+00  0.0000000000000000e+00  0.0000000000000000e+00  0.0000000000000000e+00  0.0000000000000000e+00  0.0000000000000000e+00  0.0000000000000000e+00  0.0000000000000000e+00  0.0000000000000000e+00  0.0000000000000000e+00  0.0000000000000000e+00  0.0000000000000000e+00  0.0000000000000000e+00  0.0000000000000000e+00  0.0000000000000000e+00  0.0000000000000000e+00  0.0000000000000000e+00  0.0000000000000000e+00  0.0000000000000000e+00  0.0000000000000000e+00  0.0000000000000000e+00  0.0000000000000000e+00  0.0000000000000000e+00  0.0000000000000000e+00  0.0000000000000000e+00  0.0000000000000000e+00  0.0000000000000000e+00  0.0000000000000000e+00  0.0000000000000000e+00  0.0000000000000000e+00  0.0000000000000000e+00  0.0000000000000000e+00  0.0000000000000000e+00  0.0000000000000000e+00  0.0000000000000000e+00  0.0000000000000000e+00  0.0000000000000000e+00  0.0000000000000000e+00  0.0000000000000000e+00  0.0000000000000000e+00  0.0000000000000000e+00  0.0000000000000000e+00  0.0000000000000000e+00  0.0000000000000000e+00  0.0000000000000000e+00  0.0000000000000000e+00  0.0000000000000000e+00  0.0000000000000000e+00  0.0000000000000000e+00  0.0000000000000000e+00  0.0000000000000000e+00  0.0000000000000000e+00  0.0000000000000000e+00  0.0000000000000000e+00  0.0000000000000000e+00  0.0000000000000000e+00  0.0000000000000000e+00  0.0000000000000000e+00  0.0000000000000000e+00  0.0000000000000000e+00  0.0000000000000000e+00  0.0000000000000000e+00  0.0000000000000000e+00  0.0000000000000000e+00  0.0000000000000000e+00  0.0000000000000000e+00  0.0000000000000000e+00  0.0000000000000000e+00  0.0000000000000000e+00  0.0000000000000000e+00  0.0000000000000000e+00  0.0000000000000000e+00  0.0000000000000000e+00  0.0000000000000000e+00  0.0000000000000000e+00  0.0000000000000000e+00  0.0000000000000000e+00  0.0000000000000000e+00  0.0000000000000000e+00  0.0000000000000000e+00  0.0000000000000000e+00  0.0000000000000000e+00  0.0000000000000000e+00  0.0000000000000000e+00  0.0000000000000000e+00  0.0000000000000000e+00  0.0000000000000000e+00  0.0000000000000000e+00  0.0000000000000000e+00  0.0000000000000000e+00  0.0000000000000000e+00  0.0000000000000000e+00  0.0000000000000000e+00  0.0000000000000000e+00  0.0000000000000000e+00  0.0000000000000000e+00  0.0000000000000000e+00  0.0000000000000000e+00  0.0000000000000000e+00  0.0000000000000000e+00  0.0000000000000000e+00  0.0000000000000000e+00  0.0000000000000000e+00  0.0000000000000000e+00  0.0000000000000000e+00  0.0000000000000000e+00  0.0000000000000000e+00  0.0000000000000000e+00  0.0000000000000000e+00  0.0000000000000000e+00  0.0000000000000000e+00  0.0000000000000000e+00  0.0000000000000000e+00  0.0000000000000000e+00  0.0000000000000000e+00  0.0000000000000000e+00  0.0000000000000000e+00  0.0000000000000000e+00  0.0000000000000000e+00  0.0000000000000000e+00  0.0000000000000000e+00  0.0000000000000000e+00  0.0000000000000000e+00  0.0000000000000000e+00  0.0000000000000000e+00  0.0000000000000000e+00  0.0000000000000000e+00  0.0000000000000000e+00  0.0000000000000000e+00  0.0000000000000000e+00  0.0000000000000000e+00  0.0000000000000000e+00  0.0000000000000000e+00  0.0000000000000000e+00  0.0000000000000000e+00  0.0000000000000000e+00  0.0000000000000000e+00  0.0000000000000000e+00  0.0000000000000000e+00  0.0000000000000000e+00  0.0000000000000000e+00  0.0000000000000000e+00  0.0000000000000000e+00  0.0000000000000000e+00  0.0000000000000000e+00  0.0000000000000000e+00  0.0000000000000000e+00  0.0000000000000000e+00  0.0000000000000000e+00  0.0000000000000000e+00  0.0000000000000000e+00  0.0000000000000000e+00  0.0000000000000000e+00  0.0000000000000000e+00  0.0000000000000000e+00  0.0000000000000000e+00  0.0000000000000000e+00  0.0000000000000000e+00  0.0000000000000000e+00  0.0000000000000000e+00  0.0000000000000000e+00  0.0000000000000000e+00  0.0000000000000000e+00  0.0000000000000000e+00  0.0000000000000000e+00  0.0000000000000000e+00  0.0000000000000000e+00  0.0000000000000000e+00  0.0000000000000000e+00  0.0000000000000000e+00  0.0000000000000000e+00  0.0000000000000000e+00  0.0000000000000000e+00  0.0000000000000000e+00  0.0000000000000000e+00  0.0000000000000000e+00  0.0000000000000000e+00  0.0000000000000000e+00  0.0000000000000000e+00  0.0000000000000000e+00  0.0000000000000000e+00  0.0000000000000000e+00  0.0000000000000000e+00  0.0000000000000000e+00  0.0000000000000000e+00  0.0000000000000000e+00  0.0000000000000000e+00  0.0000000000000000e+00  0.0000000000000000e+00  0.0000000000000000e+00  0.0000000000000000e+00  0.0000000000000000e+00  0.0000000000000000e+00  0.0000000000000000e+00  0.0000000000000000e+00  0.0000000000000000e+00  0.0000000000000000e+00  0.0000000000000000e+00  0.0000000000000000e+00  0.0000000000000000e+00  0.0000000000000000e+00  0.0000000000000000e+00  0.0000000000000000e+00  0.0000000000000000e+00  0.0000000000000000e+00  0.0000000000000000e+00  0.0000000000000000e+00  0.0000000000000000e+00  0.0000000000000000e+00  0.0000000000000000e+00  0.0000000000000000e+00  0.0000000000000000e+00  0.0000000000000000e+00  0.0000000000000000e+00  0.0000000000000000e+00  0.0000000000000000e+00  0.0000000000000000e+00  0.0000000000000000e+00  0.0000000000000000e+00  0.0000000000000000e+00  0.0000000000000000e+00  0.0000000000000000e+00  0.0000000000000000e+00  0.0000000000000000e+00  0.0000000000000000e+00  0.0000000000000000e+00  0.0000000000000000e+00  0.0000000000000000e+00  0.0000000000000000e+00  0.0000000000000000e+00  0.0000000000000000e+00  0.0000000000000000e+00  0.0000000000000000e+00  0.0000000000000000e+00  0.0000000000000000e+00  0.0000000000000000e+00  0.0000000000000000e+00  0.0000000000000000e+00  0.0000000000000000e+00  0.0000000000000000e+00  0.0000000000000000e+00  0.0000000000000000e+00  0.0000000000000000e+00  0.0000000000000000e+00  0.0000000000000000e+00  0.0000000000000000e+00  0.0000000000000000e+00  0.0000000000000000e+00  0.0000000000000000e+00  0.0000000000000000e+00  0.0000000000000000e+00  0.0000000000000000e+00  5.4760224037148236e-06  5.8252595889665411e-06  5.4760550996034007e-06  5.6921825199073088e-06  5.3721954621103072e-06  5.2825897806836172e-06  5.2826062598231779e-06  5.2834608905740822e-06  5.2345907871507773e-06  5.1328443588667591e-06  5.1741161259278281e-06  4.6376364186700793e-06  4.7572330035594605e-06  4.7593283545123038e-06  5.0642270899083717e-06  4.2181349495765643e-06  4.6696558013861789e-06  4.0611604743996494e-06  4.6694009232030556e-06  4.6697772951038505e-06  4.0507364676208424e-06  4.1804952027644144e-06  4.2210745227167523e-06  3.5913141230881472e-06  3.9329669077501804e-06  3.6187171176467697e-06  4.0416487473677583e-06  3.2444492320375101e-06  3.2883187729675897e-06  3.6238136817147767e-06  3.7303717134207586e-06  3.1953287305405777e-06  3.1491403097683508e-06  2.7031638391023072e-06  3.1490797562774896e-06  2.7943799408368312e-06  2.2027963031249494e-06  2.1028615921058002e-06  2.5627046578881385e-06  2.6876947954573152e-06  2.4094289774370501e-06  2.4100386195540724e-06  2.5004316817534619e-06  2.4093867494319697e-06  1.9503702566126150e-06  1.7739857514310374e-06  1.7737490765184219e-06  1.8312024999733031e-06  5.4220609488548209e-06  5.6473356558097165e-06  5.3029826023026458e-06  5.1801555472737227e-06  1.7740101674986386e-06  1.9461530893186467e-06  1.7771873634346369e-06  5.4980530254653160e-06  4.9914824691162996e-06  1.7740301120077538e-06  4.9913503029307500e-06  5.1643565994094691e-06  5.0598531049238535e-06  5.4219765546572690e-06  5.6255158824193512e-06  5.4226496773176823e-06  5.8077754245138359e-06  5.4220605540186432e-06  5.0598095065684546e-06  5.2405007786391932e-06  1.1107739241031571e-06  1.0828762347585172e-06  1.1106274098296650e-06  1.0044416219912447e-06  1.1104208043786185e-06  1.0746474267301036e-06  1.1362207507983907e-06  1.0823152531816292e-06  3.9086934934681970e-06  4.4217406298068161e-06  4.2741862662837980e-06  3.5568386918304987e-06  4.2743963222501052e-06  2.9348499055610432e-06  4.2788255064919029e-06  3.5754683574945722e-06  4.9342640290330667e-06  4.3548172163047379e-06  4.0299656187035108e-06  3.0289393922081267e-06  4.4807594987907618e-06  3.6858860090389369e-06  4.6131387525807274e-06  3.8416735567150586e-06  6.0092298946274310e-07  5.3562881352915135e-07  6.0131894055362757e-07  6.4769012068184914e-07  6.0119582780009585e-07  6.1436949207518537e-07  5.3266881381403969e-07  6.2726084185201175e-07  2.0958318410676361e-06  2.0995303420787052e-06  5.3629082173009521e-06  5.4598153449417028e-06  5.5116356982320553e-06  5.6388982356386332e-06  5.4706181597618529e-06  5.5925422045676929e-06  5.5402128297267201e-06  5.6751463375458017e-06  4.7558972734913302e-06  5.1163702541982393e-06  4.7107660456645391e-06  5.4706543524200695e-06  1.4451442863800023e-06  1.5417542744873660e-06  1.9177631892608581e-06  2.0347867214038877e-06  2.7134905737019277e-06  2.0958574940246481e-06  2.6055316848640490e-06  5.1231459506001281e-06  2.0300767066852525e-06  1.4443139792012850e-06  2.6447852402968155e-06  4.9734789888107701e-06  2.7133133599226207e-06  1.4453278683998618e-06  5.1240024310501160e-06  2.0958439941515152e-06  4.8401199638344233e-06  4.4807627381327712e-06  5.1213902853190316e-06  4.3899977115179075e-06  5.1227663870303395e-06  1.4451421739538310e-06  5.1237032833031200e-06  4.7255588124205402e-06  4.8401581789019101e-06  4.2812101701905723e-06  2.0956490874747168e-06  5.3629212166069853e-06  1.5670204036301999e-06  4.9185669722840185e-06  4.9170856647747247e-06  5.1814412584321406e-06  5.0739975304558098e-06  5.7325461826564342e-06  5.6934376061326968e-06  1.4450853192355634e-06  5.3629076233359800e-06  4.2722737158767157e-06  5.1814239940162627e-06  1.6013920856275502e-06  3.8807652871562396e-06  4.9182262607487193e-06  4.2745625435796804e-06  3.3225389147266034e-06  2.6649427284598369e-06  4.2741821646251160e-06  4.4405371779952109e-06  3.0068294253372340e-06  3.0035522030268207e-06  5.5619935672255559e-06  2.5827417848303876e-07  2.2979464762375508e-07  2.5811689102392512e-07  2.8388638384014275e-07  5.4706182869876161e-06  1.0943939583566643e-05  1.0949342325080615e-05  1.6411857291210094e-05  1.6411857166091279e-05  2.1866272812229594e-05  2.1855482988911839e-05  2.7299110202204415e-05  2.7272169140484326e-05  3.2702330780951810e-05  3.2653912816287889e-05  3.8067947675223783e-05  3.7992773536355776e-05  4.3388040266435204e-05  4.3452374368794154e-05  4.8751038921650179e-05  4.8654768516662864e-05  5.3993732107756847e-05  5.3860387146709618e-05  5.9172737539246495e-05  5.8997259640297209e-05  6.4280451379461817e-05  6.4057872048163078e-05  6.9309396089163364e-05  6.9034846567109562e-05  7.4252233940815335e-05  7.3920954869114696e-05  7.9101780276171258e-05  7.8709131155484864e-05  8.3851016482617904e-05  8.4226797390226645e-05  8.8934560148159559e-05  8.9288250141128883e-05  9.3952036164040130e-05  9.4278487405562614e-05  9.8895827283485769e-05  9.9189976875395912e-05  1.0375843881305400e-04  1.0401531870841755e-04  1.0853251220064142e-04  1.0874725893716328e-04  1.1321083837462925e-04  1.1337870261088465e-04  1.1778637080953595e-04  1.1790272664596850e-04  1.2225223829412032e-04  1.2231259236196394e-04  1.2660175737853413e-04  1.2660175767968947e-04  1.3082844447757642e-04  1.3076388841324447e-04  1.3492602736547531e-04  1.3492602760781147e-04  1.3895702427443225e-04  1.3888845773695445e-04  1.4285089581814051e-04  1.4285089564104462e-04  1.4667427007183145e-04  1.4660189547774442e-04  1.5035290365880366e-04  1.5035290355114723e-04  1.5395733782057750e-04  1.5388136940668390e-04  1.5740984422759260e-04  1.5740984419136401e-04  1.6078466872133942e-04  1.6070533136383519e-04  1.6400082813898800e-04  1.6400082810374159e-04  1.6713605303792054e-04  1.6705358158925857e-04  1.7010634517973874e-04  1.7010634528473275e-04  1.7299268991678206e-04  1.7290732850611776e-04  1.7570832240952383e-04  1.7570832258106801e-04  1.7833724303572502e-04  1.7824924434868279e-04  1.8079017730270551e-04  1.8079017753643172e-04  1.8315389191721814e-04  1.8306351644693851e-04  1.8533686700636322e-04  1.8533686729707081e-04  1.8742837875456217e-04  1.8733589466473889e-04  1.8933493317136623e-04  1.8933493282940306e-04  1.9114805061243455e-04  1.9105373113824332e-04  1.9277254046496214e-04  1.9277254007770127e-04  1.9430189687700240e-04  1.9420602039714284e-04  1.9563951308227721e-04  1.9563951350891050e-04  1.9688058184486813e-04  1.9678343290317109e-04  1.9792736531691564e-04  1.9792736577724121e-04  1.9887647235448933e-04  1.9877833852993825e-04  1.9962932451619229e-04  1.9962932500495876e-04  2.0028366037837706e-04  2.0018483316722231e-04  2.0018483216472938e-04  2.0074035271960068e-04  2.0054224608022841e-04  2.0099875045506832e-04  2.0070115926394084e-04  2.0105854449349800e-04  2.0066150765444250e-04  2.0091976877297844e-04  2.0042357021535161e-04  2.0058280017941685e-04  1.9998796839440383e-04  9.3532865804227369e-05  2.0004835783649867e-04  1.9935566495488417e-04  1.9931750176846750e-04  1.9991033938196814e-04  1.9852796218157220e-04  1.9846623243318076e-04  1.9754249978918493e-04  1.9738093801997412e-04  1.9636208710855372e-04  1.9908097415363064e-04  1.9957384882303972e-04  1.9610085275312774e-04  1.9864611582049899e-04  1.9903916498686434e-04  1.9498788904665339e-04  1.9462723990293311e-04  1.9801330343701556e-04  1.9830690926715911e-04  1.9342126175071490e-04  1.9296155372562382e-04  1.9718325599145351e-04  1.9737804452799374e-04  1.9166375127007584e-04  1.9615703352751190e-04  1.9625387338184113e-04  1.9110543802832057e-04  1.8971709203060349e-04  1.9493603525435401e-04  1.9493603584491619e-04  1.8906072454709808e-04  1.8758320512326542e-04  1.9352199703502108e-04  1.9342650637414497e-04  1.8682943113944607e-04  1.9191698825784780e-04  1.9172759029136658e-04  1.8526419640848378e-04  1.8441375979317255e-04  1.9012340809667616e-04  1.8984191960105470e-04  1.8276235443816658e-04  1.8814398116664309e-04  1.8777244820948735e-04  1.8181609445355482e-04  1.8008014819745363e-04  1.8598175258363522e-04  1.8552244655410866e-04  1.8721560683260507e-04  1.8488005257700723e-04  1.8647400656239606e-04  1.8405520460758364e-04  1.8554837925722432e-04  1.8304871665844182e-04  1.8443963838515474e-04  1.8186158199628400e-04  1.8314887812264087e-04  1.8049497216179761e-04  1.8167737227486210e-04  1.7895023581363580e-04  1.8002657301867755e-04  1.7722889739757517e-04  1.7819810946971792e-04  1.7533265564225782e-04  1.7619378607481261e-04  1.7326338188292467e-04  1.7401558083139838e-04  1.7102311821482169e-04  1.7166564333566725e-04  1.6861407547809267e-04  1.6914629266137166e-04  1.7903899867095839e-04  1.6603863107614365e-04  1.6646001507137823e-04  1.7722022466841499e-04  1.7817321067284473e-04  1.7911826473887809e-04  1.6542383855920153e-04  1.6279667872201749e-04  1.7523370882345353e-04  1.7609949200900890e-04  1.7608521307121085e-04  1.6210089799720821e-04  1.5942655827889095e-04  1.7308386559427053e-04  1.7386348811658343e-04  1.7077538911965839e-04  1.7146997231929961e-04  1.5865144084111160e-04  1.5593460574566247e-04  1.6831324447809669e-04  1.6892398647775026e-04  1.5508186436889918e-04  1.5232735875593892e-04  1.6570265845078052e-04  1.6623083162153481e-04  1.6294910980534476e-04  1.6339605810700291e-04  1.5139876430161960e-04  1.4861154452542802e-04  1.6231780188315494e-04  1.6005831911869325e-04  1.6042545531879123e-04  1.5703623815730046e-04  1.5732504093409901e-04  1.4760892265502365e-04  1.4479406745321113e-04  1.4567766307127953e-04  1.4183631795368628e-04  1.4260001529669438e-04  1.3873859307028753e-04  1.5388903883451963e-04  1.5410104976944835e-04  1.4088199639971521e-04  1.3938163843911792e-04  1.5062310176554807e-04  1.5075992223050812e-04  1.3550394985576818e-04  1.4724500444097217e-04  1.4730829238628369e-04  1.3602570861859326e-04  1.4376150904050342e-04  1.4375297568955655e-04  1.3213558048485638e-04  1.4358477352237095e-04  1.4017954990959761e-04  1.4010095636624902e-04  1.8364008243644509e-04  1.3253553770331634e-04  1.3650622072200667e-04  1.3635937449695118e-04  1.3983541730085166e-04  1.3602568449079099e-04  1.3938161514712882e-04  1.3550392569483403e-04  1.3873856985292707e-04  1.3479321115879227e-04  1.3790564092503301e-04  1.3389299386839054e-04  1.3688252884987845e-04  1.3077132259860005e-04  1.2980579945150793e-04  1.2668042817235133e-04  1.778163605271743