<?xml version="1.0"?>
<VTKFile type="UnstructuredGrid"  version="0.1"  >
<UnstructuredGrid>
<Piece  NumberOfPoints="11833" NumberOfCells="23264">
<Points>
<DataArray  type="Float64"  NumberOfComponents="3"  format="ascii">0 0 0  1 0 0  1 1 0  0 1 0  0.009999999999981104 0 0  0.01999999999996237 0 0  0.02999999999994307 0 0  0.03999999999992186 0 0  0.04999999999989966 0 0  0.05999999999987837 0 0  0.06999999999986051 0 0  0.07999999999984518 0 0  0.0899999999998299 0 0  0.09999999999981463 0 0  0.1099999999997994 0 0  0.1199999999997832 0 0  0.1299999999997609 0 0  0.1399999999997328 0 0  0.1499999999997036 0 0  0.1599999999996745 0 0  0.1699999999996453 0 0  0.1799999999996162 0 0  0.189999999999587 0 0  0.1999999999995579 0 0  0.2099999999995288 0 0  0.2199999999994996 0 0  0.2299999999994704 0 0  0.2399999999994413 0 0  0.2499999999994121 0 0  0.259999999999383 0 0  0.2699999999993538 0 0  0.2799999999993247 0 0  0.2899999999992955 0 0  0.2999999999992664 0 0  0.3099999999992372 0 0  0.3199999999992081 0 0  0.329999999999179 0 0  0.3399999999991498 0 0  0.3499999999991207 0 0  0.3599999999990915 0 0  0.3699999999990624 0 0  0.3799999999990332 0 0  0.3899999999990041 0 0  0.3999999999989749 0 0  0.4099999999989458 0 0  0.4199999999989167 0 0  0.4299999999988875 0 0  0.4399999999988584 0 0  0.4499999999988292 0 0  0.4599999999988 0 0  0.4699999999987708 0 0  0.4799999999987418 0 0  0.4899999999987126 0 0  0.4999999999986943 0 0  0.5099999999987098 0 0  0.5199999999987361 0 0  0.5299999999987626 0 0  0.5399999999987888 0 0  0.5499999999988152 0 0  0.5599999999988415 0 0  0.5699999999988679 0 0  0.5799999999988942 0 0  0.5899999999989205 0 0  0.5999999999989468 0 0  0.6099999999989731 0 0  0.6199999999989995 0 0  0.6299999999990258 0 0  0.6399999999990521 0 0  0.6499999999990784 0 0  0.6599999999991049 0 0  0.6699999999991312 0 0  0.6799999999991574 0 0  0.6899999999991837 0 0  0.6999999999992101 0 0  0.7099999999992365 0 0  0.7199999999992628 0 0  0.7299999999992892 0 0  0.7399999999993154 0 0  0.7499999999993417 0 0  0.7599999999993681 0 0  0.7699999999993945 0 0  0.7799999999994207 0 0  0.789999999999447 0 0  0.7999999999994734 0 0  0.8099999999994998 0 0  0.8199999999995261 0 0  0.8299999999995523 0 0  0.8399999999995788 0 0  0.8499999999996051 0 0  0.8599999999996314 0 0  0.8699999999996577 0 0  0.8799999999996841 0 0  0.8899999999997104 0 0  0.8999999999997367 0 0  0.9099999999997631 0 0  0.9199999999997894 0 0  0.9299999999998156 0 0  0.939999999999842 0 0  0.9499999999998684 0 0  0.9599999999998947 0 0  0.969999999999921 0 0  0.9799999999999475 0 0  0.9899999999999737 0 0  1 0.009999999999981104 0  1 0.01999999999996237 0  1 0.02999999999994307 0  1 0.03999999999992186 0  1 0.04999999999989966 0  1 0.05999999999987837 0  1 0.06999999999986051 0  1 0.07999999999984518 0  1 0.0899999999998299 0  1 0.09999999999981463 0  1 0.1099999999997994 0  1 0.1199999999997832 0  1 0.1299999999997609 0  1 0.1399999999997328 0  1 0.1499999999997036 0  1 0.1599999999996745 0  1 0.1699999999996453 0  1 0.1799999999996162 0  1 0.189999999999587 0  1 0.1999999999995579 0  1 0.2099999999995288 0  1 0.2199999999994996 0  1 0.2299999999994704 0  1 0.2399999999994413 0  1 0.2499999999994121 0  1 0.259999999999383 0  1 0.2699999999993538 0  1 0.2799999999993247 0  1 0.2899999999992955 0  1 0.2999999999992664 0  1 0.3099999999992372 0  1 0.3199999999992081 0  1 0.329999999999179 0  1 0.3399999999991498 0  1 0.3499999999991207 0  1 0.3599999999990915 0  1 0.3699999999990624 0  1 0.3799999999990332 0  1 0.3899999999990041 0  1 0.3999999999989749 0  1 0.4099999999989458 0  1 0.4199999999989167 0  1 0.4299999999988875 0  1 0.4399999999988584 0  1 0.4499999999988292 0  1 0.4599999999988 0  1 0.4699999999987708 0  1 0.4799999999987418 0  1 0.4899999999987126 0  1 0.4999999999986943 0  1 0.5099999999987098 0  1 0.5199999999987361 0  1 0.5299999999987626 0  1 0.5399999999987888 0  1 0.5499999999988152 0  1 0.5599999999988415 0  1 0.5699999999988679 0  1 0.5799999999988942 0  1 0.5899999999989205 0  1 0.5999999999989468 0  1 0.6099999999989731 0  1 0.6199999999989995 0  1 0.6299999999990258 0  1 0.6399999999990521 0  1 0.6499999999990784 0  1 0.6599999999991049 0  1 0.6699999999991312 0  1 0.6799999999991574 0  1 0.6899999999991837 0  1 0.6999999999992101 0  1 0.7099999999992365 0  1 0.7199999999992628 0  1 0.7299999999992892 0  1 0.7399999999993154 0  1 0.7499999999993417 0  1 0.7599999999993681 0  1 0.7699999999993945 0  1 0.7799999999994207 0  1 0.789999999999447 0  1 0.7999999999994734 0  1 0.8099999999994998 0  1 0.8199999999995261 0  1 0.8299999999995523 0  1 0.8399999999995788 0  1 0.8499999999996051 0  1 0.8599999999996314 0  1 0.8699999999996577 0  1 0.8799999999996841 0  1 0.8899999999997104 0  1 0.8999999999997367 0  1 0.9099999999997631 0  1 0.9199999999997894 0  1 0.9299999999998156 0  1 0.939999999999842 0  1 0.9499999999998684 0  1 0.9599999999998947 0  1 0.969999999999921 0  1 0.9799999999999475 0  1 0.9899999999999737 0  0.9899999999999584 1 0  0.9799999999999167 1 0  0.9699999999998751 1 0  0.9599999999998334 1 0  0.9499999999997918 1 0  0.9399999999997501 1 0  0.9299999999997085 1 0  0.9199999999996669 1 0  0.9099999999996251 1 0  0.8999999999995835 1 0  0.8899999999995418 1 0  0.879999999999508 1 0  0.8699999999995218 1 0  0.8599999999995834 1 0  0.8499999999996528 1 0  0.8399999999997222 1 0  0.8299999999997916 1 0  0.819999999999861 1 0  0.8099999999999303 1 0  0.7999999999999997 1 0  0.7900000000000691 1 0  0.7800000000001385 1 0  0.7700000000002079 1 0  0.7600000000002772 1 0  0.7500000000003466 1 0  0.7400000000004161 1 0  0.7300000000004854 1 0  0.7200000000005549 1 0  0.7100000000006242 1 0  0.7000000000006936 1 0  0.690000000000763 1 0  0.6800000000008324 1 0  0.6700000000009018 1 0  0.660000000000971 1 0  0.6500000000010404 1 0  0.6400000000011098 1 0  0.6300000000011791 1 0  0.6200000000012484 1 0  0.6100000000013178 1 0  0.6000000000013872 1 0  0.5900000000014565 1 0  0.5800000000015259 1 0  0.5700000000015952 1 0  0.5600000000016645 1 0  0.5500000000017339 1 0  0.5400000000018033 1 0  0.5300000000018725 1 0  0.5200000000019419 1 0  0.5100000000020113 1 0  0.500000000002059 1 0  0.490000000002039 1 0  0.4800000000019974 1 0  0.4700000000019557 1 0  0.4600000000019141 1 0  0.4500000000018726 1 0  0.4400000000018309 1 0  0.4300000000017893 1 0  0.4200000000017478 1 0  0.4100000000017061 1 0  0.4000000000016645 1 0  0.3900000000016228 1 0  0.3800000000015813 1 0  0.3700000000015397 1 0  0.360000000001498 1 0  0.3500000000014565 1 0  0.3400000000014148 1 0  0.3300000000013732 1 0  0.3200000000013316 1 0  0.3100000000012899 1 0  0.3000000000012484 1 0  0.2900000000012067 1 0  0.2800000000011651 1 0  0.2700000000011236 1 0  0.2600000000010819 1 0  0.2500000000010403 1 0  0.2400000000009987 1 0  0.2300000000009571 1 0  0.2200000000009155 1 0  0.2100000000008738 1 0  0.2000000000008322 1 0  0.1900000000007906 1 0  0.180000000000749 1 0  0.1700000000007074 1 0  0.1600000000006658 1 0  0.1500000000006242 1 0  0.1400000000005825 1 0  0.130000000000541 1 0  0.1200000000004994 1 0  0.1100000000004577 1 0  0.1000000000004161 1 0  0.09000000000037445 1 0  0.08000000000033292 1 0  0.07000000000029127 1 0  0.06000000000024963 1 0  0.0500000000002081 1 0  0.04000000000016646 1 0  0.03000000000012482 1 0  0.02000000000008328 1 0  0.01000000000004164 1 0  0 0.9899999999999584 0  0 0.9799999999999167 0  0 0.9699999999998751 0  0 0.9599999999998334 0  0 0.9499999999997918 0  0 0.9399999999997501 0  0 0.9299999999997085 0  0 0.9199999999996669 0  0 0.9099999999996251 0  0 0.8999999999995835 0  0 0.8899999999995418 0  0 0.879999999999508 0  0 0.8699999999995218 0  0 0.8599999999995834 0  0 0.8499999999996528 0  0 0.8399999999997222 0  0 0.8299999999997916 0  0 0.819999999999861 0  0 0.8099999999999303 0  0 0.7999999999999997 0  0 0.7900000000000691 0  0 0.7800000000001385 0  0 0.7700000000002079 0  0 0.7600000000002772 0  0 0.7500000000003466 0  0 0.7400000000004161 0  0 0.7300000000004854 0  0 0.7200000000005549 0  0 0.7100000000006242 0  0 0.7000000000006936 0  0 0.690000000000763 0  0 0.6800000000008324 0  0 0.6700000000009018 0  0 0.660000000000971 0  0 0.6500000000010404 0  0 0.6400000000011098 0  0 0.6300000000011791 0  0 0.6200000000012484 0  0 0.6100000000013178 0  0 0.6000000000013872 0  0 0.5900000000014565 0  0 0.5800000000015259 0  0 0.5700000000015952 0  0 0.5600000000016645 0  0 0.5500000000017339 0  0 0.5400000000018033 0  0 0.5300000000018725 0  0 0.5200000000019419 0  0 0.5100000000020113 0  0 0.500000000002059 0  0 0.490000000002039 0  0 0.4800000000019974 0  0 0.4700000000019557 0  0 0.4600000000019141 0  0 0.4500000000018726 0  0 0.4400000000018309 0  0 0.4300000000017893 0  0 0.4200000000017478 0  0 0.4100000000017061 0  0 0.4000000000016645 0  0 0.3900000000016228 0  0 0.3800000000015813 0  0 0.3700000000015397 0  0 0.360000000001498 0  0 0.3500000000014565 0  0 0.3400000000014148 0  0 0.3300000000013732 0  0 0.3200000000013316 0  0 0.3100000000012899 0  0 0.3000000000012484 0  0 0.2900000000012067 0  0 0.2800000000011651 0  0 0.2700000000011236 0  0 0.2600000000010819 0  0 0.2500000000010403 0  0 0.2400000000009987 0  0 0.2300000000009571 0  0 0.2200000000009155 0  0 0.2100000000008738 0  0 0.2000000000008322 0  0 0.1900000000007906 0  0 0.180000000000749 0  0 0.1700000000007074 0  0 0.1600000000006658 0  0 0.1500000000006242 0  0 0.1400000000005825 0  0 0.130000000000541 0  0 0.1200000000004994 0  0 0.1100000000004577 0  0 0.1000000000004161 0  0 0.09000000000037445 0  0 0.08000000000033292 0  0 0.07000000000029127 0  0 0.06000000000024963 0  0 0.0500000000002081 0  0 0.04000000000016646 0  0 0.03000000000012482 0  0 0.02000000000008328 0  0 0.01000000000004164 0  0.4950000000020247 0.9913397459621618 0  0.009211990098867707 0.4961881723756173 0  0.504999999998702 0.008660254037843167 0  0.990998005876526 0.504174558101478 0  0.008805615027760829 0.5847550863993457 0  0.5850000000017108 0.9913397459623841 
[...]
<PointData  Scalars="f_1270"> 
<DataArray  type="Float64"  Name="f_1270"  format="ascii">0.0000000000000000e+00  0.0000000000000000e+00  0.0000000000000000e+00  0.0000000000000000e+00  0.0000000000000000e+00  0.0000000000000000e+00  0.0000000000000000e+00  0.0000000000000000e+00  0.0000000000000000e+00  0.0000000000000000e+00  0.0000000000000000e+00  0.0000000000000000e+00  0.0000000000000000e+00  0.0000000000000000e+00  0.0000000000000000e+00  0.0000000000000000e+00  0.0000000000000000e+00  0.0000000000000000e+00  0.0000000000000000e+00  0.0000000000000000e+00  0.0000000000000000e+00  0.0000000000000000e+00  0.0000000000000000e+00  0.0000000000000000e+00  0.0000000000000000e+00  0.0000000000000000e+00  0.0000000000000000e+00  0.0000000000000000e+00  0.0000000000000000e+00  0.0000000000000000e+00  0.0000000000000000e+00  0.0000000000000000e+00  0.0000000000000000e+00  0.0000000000000000e+00  0.0000000000000000e+00  0.0000000000000000e+00  0.0000000000000000e+00  0.0000000000000000e+00  0.0000000000000000e+00  0.0000000000000000e+00  0.0000000000000000e+00  0.0000000000000000e+00  0.0000000000000000e+00  0.0000000000000000e+00  0.0000000000000000e+00  0.0000000000000000e+00  0.0000000000000000e+00  0.0000000000000000e+00  0.0000000000000000e+00  0.0000000000000000e+00  0.0000000000000000e+00  0.0000000000000000e+00  0.0000000000000000e+00  0.0000000000000000e+00  0.0000000000000000e+00  0.0000000000000000e+00  0.0000000000000000e+00  0.0000000000000000e+00  0.0000000000000000e+00  0.0000000000000000e+00  0.0000000000000000e+00  0.0000000000000000e+00  0.0000000000000000e+00  0.0000000000000000e+00  0.0000000000000000e+00  0.0000000000000000e+00  0.0000000000000000e+00  0.0000000000000000e+00  0.0000000000000000e+00  0.0000000000000000e+00  0.0000000000000000e+00  0.0000000000000000e+00  0.0000000000000000e+00  0.0000000000000000e+00  0.0000000000000000e+00  0.0000000000000000e+00  0.0000000000000000e+00  0.0000000000000000e+00  0.0000000000000000e+00  0.0000000000000000e+00  0.0000000000000000e+00  0.0000000000000000e+00  0.0000000000000000e+00  0.0000000000000000e+00  0.0000000000000000e+00  0.0000000000000000e+00  0.0000000000000000e+00  0.0000000000000000e+00  0.0000000000000000e+00  0.0000000000000000e+00  0.0000000000000000e+00  0.0000000000000000e+00  0.0000000000000000e+00  0.0000000000000000e+00  0.0000000000000000e+00  0.0000000000000000e+00  0.0000000000000000e+00  0.0000000000000000e+00  0.0000000000000000e+00  0.0000000000000000e+00  0.0000000000000000e+00  0.0000000000000000e+00  0.0000000000000000e+00  0.0000000000000000e+00  0.0000000000000000e+00  0.0000000000000000e+00  0.0000000000000000e+00  0.0000000000000000e+00  0.0000000000000000e+00  0.0000000000000000e+00  0.0000000000000000e+00  0.0000000000000000e+00  0.0000000000000000e+00  0.0000000000000000e+00  0.0000000000000000e+00  0.0000000000000000e+00  0.0000000000000000e+00  0.0000000000000000e+00  0.0000000000000000e+00  0.0000000000000000e+00  0.0000000000000000e+00  0.0000000000000000e+00  0.0000000000000000e+00  0.0000000000000000e+00  0.0000000000000000e+00  0.0000000000000000e+00  0.0000000000000000e+00  0.0000000000000000e+00  0.0000000000000000e+00  0.0000000000000000e+00  0.0000000000000000e+00  0.0000000000000000e+00  0.0000000000000000e+00  0.0000000000000000e+00  0.0000000000000000e+00  0.0000000000000000e+00  0.0000000000000000e+00  0.0000000000000000e+00  0.0000000000000000e+00  0.0000000000000000e+00  0.0000000000000000e+00  0.0000000000000000e+00  0.0000000000000000e+00  0.0000000000000000e+00  0.0000000000000000e+00  0.0000000000000000e+00  0.0000000000000000e+00  0.0000000000000000e+00  0.0000000000000000e+00  0.0000000000000000e+00  0.0000000000000000e+00  0.0000000000000000e+00  0.0000000000000000e+00  0.0000000000000000e+00  0.0000000000000000e+00  0.0000000000000000e+00  0.0000000000000000e+00  0.0000000000000000e+00  0.0000000000000000e+00  0.0000000000000000e+00  0.0000000000000000e+00  0.0000000000000000e+00  0.0000000000000000e+00  0.0000000000000000e+00  0.0000000000000000e+00  0.0000000000000000e+00  0.0000000000000000e+00  0.0000000000000000e+00  0.0000000000000000e+00  0.0000000000000000e+00  0.0000000000000000e+00  0.0000000000000000e+00  0.0000000000000000e+00  0.0000000000000000e+00  0.0000000000000000e+00  0.0000000000000000e+00  0.0000000000000000e+00  0.0000000000000000e+00  0.0000000000000000e+00  0.0000000000000000e+00  0.0000000000000000e+00  0.0000000000000000e+00  0.0000000000000000e+00  0.0000000000000000e+00  0.0000000000000000e+00  0.0000000000000000e+00  0.0000000000000000e+00  0.0000000000000000e+00  0.0000000000000000e+00  0.0000000000000000e+00  0.0000000000000000e+00  0.0000000000000000e+00  0.0000000000000000e+00  0.0000000000000000e+00  0.0000000000000000e+00  0.0000000000000000e+00  0.0000000000000000e+00  0.0000000000000000e+00  0.0000000000000000e+00  0.0000000000000000e+00  0.0000000000000000e+00  0.0000000000000000e+00  0.0000000000000000e+00  0.0000000000000000e+00  0.0000000000000000e+00  0.0000000000000000e+00  0.0000000000000000e+00  0.0000000000000000e+00  0.0000000000000000e+00  0.0000000000000000e+00  0.0000000000000000e+00  0.0000000000000000e+00  0.0000000000000000e+00  0.0000000000000000e+00  0.0000000000000000e+00  0.0000000000000000e+00  0.0000000000000000e+00  0.0000000000000000e+00  0.0000000000000000e+00  0.0000000000000000e+00  0.0000000000000000e+00  0.0000000000000000e+00  0.0000000000000000e+00  0.0000000000000000e+00  0.0000000000000000e+00  0.0000000000000000e+00  0.0000000000000000e+00  0.0000000000000000e+00  0.0000000000000000e+00  0.0000000000000000e+00  0.0000000000000000e+00  0.0000000000000000e+00  0.0000000000000000e+00  0.0000000000000000e+00  0.0000000000000000e+00  0.0000000000000000e+00  0.0000000000000000e+00  0.0000000000000000e+00  0.0000000000000000e+00  0.0000000000000000e+00  0.0000000000000000e+00  0.0000000000000000e+00  0.0000000000000000e+00  0.0000000000000000e+00  0.0000000000000000e+00  0.0000000000000000e+00  0.0000000000000000e+00  0.0000000000000000e+00  0.0000000000000000e+00  0.0000000000000000e+00  0.0000000000000000e+00  0.0000000000000000e+00  0.0000000000000000e+00  0.0000000000000000e+00  0.0000000000000000e+00  0.0000000000000000e+00  0.0000000000000000e+00  0.0000000000000000e+00  0.0000000000000000e+00  0.0000000000000000e+00  0.0000000000000000e+00  0.0000000000000000e+00  0.0000000000000000e+00  0.0000000000000000e+00  0.0000000000000000e+00  0.0000000000000000e+00  0.0000000000000000e+00  0.0000000000000000e+00  0.0000000000000000e+00  0.0000000000000000e+00  0.0000000000000000e+00  0.0000000000000000e+00  0.0000000000000000e+00  0.0000000000000000e+00  0.0000000000000000e+00  0.0000000000000000e+00  0.0000000000000000e+00  0.0000000000000000e+00  0.0000000000000000e+00  0.0000000000000000e+00  0.0000000000000000e+00  0.0000000000000000e+00  0.0000000000000000e+00  0.0000000000000000e+00  0.0000000000000000e+00  0.0000000000000000e+00  0.0000000000000000e+00  0.0000000000000000e+00  0.0000000000000000e+00  0.0000000000000000e+00  0.0000000000000000e+00  0.0000000000000000e+00  0.0000000000000000e+00  0.0000000000000000e+00  0.0000000000000000e+00  0.0000000000000000e+00  0.0000000000000000e+00  0.0000000000000000e+00  0.0000000000000000e+00  0.0000000000000000e+00  0.0000000000000000e+00  0.0000000000000000e+00  0.0000000000000000e+00  0.0000000000000000e+00  0.0000000000000000e+00  0.0000000000000000e+00  0.0000000000000000e+00  0.0000000000000000e+00  0.0000000000000000e+00  0.0000000000000000e+00  0.0000000000000000e+00  0.0000000000000000e+00  0.0000000000000000e+00  0.0000000000000000e+00  0.0000000000000000e+00  0.0000000000000000e+00  0.0000000000000000e+00  0.0000000000000000e+00  0.0000000000000000e+00  0.0000000000000000e+00  0.0000000000000000e+00  0.0000000000000000e+00  0.0000000000000000e+00  0.0000000000000000e+00  0.0000000000000000e+00  0.0000000000000000e+00  0.0000000000000000e+00  0.0000000000000000e+00  0.0000000000000000e+00  0.0000000000000000e+00  0.0000000000000000e+00  0.0000000000000000e+00  0.0000000000000000e+00  0.0000000000000000e+00  0.0000000000000000e+00  0.0000000000000000e+00  0.0000000000000000e+00  0.0000000000000000e+00  0.0000000000000000e+00  0.0000000000000000e+00  0.0000000000000000e+00  0.0000000000000000e+00  0.0000000000000000e+00  0.0000000000000000e+00  0.0000000000000000e+00  0.0000000000000000e+00  0.0000000000000000e+00  0.0000000000000000e+00  0.0000000000000000e+00  0.0000000000000000e+00  0.0000000000000000e+00  0.0000000000000000e+00  0.0000000000000000e+00  0.0000000000000000e+00  0.0000000000000000e+00  0.0000000000000000e+00  0.0000000000000000e+00  0.0000000000000000e+00  0.0000000000000000e+00  0.0000000000000000e+00  0.0000000000000000e+00  0.0000000000000000e+00  0.0000000000000000e+00  0.0000000000000000e+00  0.0000000000000000e+00  0.0000000000000000e+00  0.0000000000000000e+00  0.0000000000000000e+00  0.0000000000000000e+00  0.0000000000000000e+00  0.0000000000000000e+00  0.0000000000000000e+00  0.0000000000000000e+00  0.0000000000000000e+00  0.0000000000000000e+00  0.0000000000000000e+00  0.0000000000000000e+00  0.0000000000000000e+00  0.0000000000000000e+00  0.0000000000000000e+00  0.0000000000000000e+00  0.0000000000000000e+00  0.0000000000000000e+00  0.0000000000000000e+00  0.0000000000000000e+00  0.0000000000000000e+00  0.0000000000000000e+00  0.0000000000000000e+00  0.0000000000000000e+00  0.0000000000000000e+00  0.0000000000000000e+00  0.0000000000000000e+00  0.0000000000000000e+00  0.0000000000000000e+00  0.0000000000000000e+00  0.0000000000000000e+00  0.0000000000000000e+00  0.0000000000000000e+00  0.0000000000000000e+00  0.0000000000000000e+00  3.7939381369581364e-03  4.0358979578533610e-03  3.7939607732304531e-03  3.9436988429142937e-03  3.7225528226663578e-03  3.6604636355744148e-03  3.6604750572365877e-03  3.6610649243175412e-03  3.6273340945632421e-03  3.5568279082608960e-03  3.5854335446765242e-03  3.2136701094063465e-03  3.2976719915714520e-03  3.2991197214054953e-03  3.5104696332280728e-03  2.9239771232883135e-03  3.2371565894261816e-03  2.8153252974312880e-03  3.2369798259855903e-03  3.2372405994874559e-03  2.8091992654724071e-03  2.8991864504719703e-03  2.9273155563608539e-03  2.4905913808771669e-03  2.7277127118192405e-03  2.5097662452923525e-03  2.8030879893339348e-03  2.2501826356972321e-03  2.2813952179106789e-03  2.5141408312927410e-03  2.5881086894307191e-03  2.2168823500293509e-03  2.1849794894056411e-03  1.8755492218964971e-03  2.1849369524537822e-03  1.9388342173259894e-03  1.5287561388669525e-03  1.4594048232630782e-03  1.7785325723336134e-03  1.8652736286801303e-03  1.6722534203651217e-03  1.6726759451068248e-03  1.7354111637655578e-03  1.6722241332599165e-03  1.3539173481289352e-03  1.2314719942522147e-03  1.2313077693060334e-03  1.2711918967319919e-03  3.7567088393643836e-03  3.9127854928935613e-03  3.6742040716342579e-03  3.5891032372323199e-03  1.2314889832246703e-03  1.3509900085635546e-03  1.2336936566812334e-03  3.8105849156449506e-03  3.4594850174061447e-03  1.2315028224917405e-03  3.4593937620350642e-03  3.5793009875552638e-03  3.5066988156915008e-03  3.7566505768480557e-03  3.8976682520555470e-03  3.7571146592509418e-03  4.0250333103557922e-03  3.7567085481322563e-03  3.5066686705790620e-03  3.6318920234440625e-03  7.7119232863914115e-04  7.5182322133899280e-04  7.7109063261105023e-04  6.9736741738218074e-04  7.7094722044209428e-04  7.4611093569993791e-04  7.8886034525881422e-04  7.5143357922712224e-04  2.7114349092112037e-03  3.0660893821334960e-03  2.9637618086814943e-03  2.4673573952428461e-03  2.9639071063709615e-03  2.0358810645211712e-03  2.9669873662086358e-03  2.4802684018480122e-03  3.4210003786807608e-03  3.0192804379388267e-03  2.7953527704013973e-03  2.1010225360744024e-03  3.1065948089788651e-03  2.5567013627108008e-03  3.1983714156801832e-03  2.6647505828071216e-03  4.1723869751647557e-04  3.7190308143674936e-04  4.1751355575930327e-04  4.4971101405302891e-04  4.1742802483025511e-04  4.2657525024546221e-04  3.6984796186722012e-04  4.3552636734942664e-04  1.4547563441820687e-03  1.4573219406401590e-03  3.7158928050580824e-03  3.7827569742856235e-03  3.8189447001467239e-03  3.9068316520668644e-03  3.7902098177428848e-03  3.8746832182486907e-03  3.8387370507064842e-03  3.9319475785001608e-03  3.2953043662512509e-03  3.5448072531935504e-03  3.2637625245653585e-03  3.7902345542452703e-03  1.0032755453495946e-03  1.0703447518444001e-03  1.3311609893187863e-03  1.4123853530984621e-03  1.8830674926615632e-03  1.4547742003760313e-03  1.8081549864910949e-03  3.5504000812405113e-03  1.4091170628685980e-03  1.0026992279249330e-03  1.8353910406743678e-03  3.4466737268454700e-03  1.8829446788968961e-03  1.0034030144948562e-03  3.5509912435250255e-03  1.4547648270604634e-03  3.3549368497462358e-03  3.1065971185429159e-03  3.5498918729207807e-03  3.0436693846157344e-03  3.5501378180975165e-03  1.0032741078623913e-03  3.5523445940421911e-03  3.2755249453409207e-03  3.3549632948410742e-03  2.9682431566585349e-03  1.4546294885068160e-03  3.7159017901613116e-03  1.0878910344106168e-03  3.4091253296504838e-03  3.4081021166078506e-03  3.5906455261728409e-03  3.5161897880564511e-03  3.9720176818207331e-03  3.9454310648586689e-03  1.0032345717722517e-03  3.7158923682563713e-03  2.9624390344081984e-03  3.5906335716261628e-03  1.1117467705286667e-03  2.6898063624388917e-03  3.4088899434870034e-03  2.9640221061624896e-03  2.3054337240578349e-03  1.8491492845450434e-03  2.9637588975172575e-03  3.0791252671483818e-03  2.0863745292097327e-03  2.0841037010661395e-03  3.8538389085453289e-03  1.7933140648014413e-04  1.5955689422246364e-04  1.7922216974888223e-04  1.9711511863998123e-04  3.7902099118288101e-03  7.5822379890643950e-03  7.5859652323194042e-03  1.1370445193177580e-02  1.1370445100564975e-02  1.5149198645059644e-02  1.5141755056941208e-02  1.8912882035163638e-02  1.8894296307431540e-02  2.2655905996500369e-02  2.2622504288111907e-02  2.6372718419238574e-02  2.6320858932592797e-02  3.0057814685883519e-02  3.0102194805796213e-02  3.3772158132831728e-02  3.3705747806131815e-02  3.7403123082828553e-02  3.7311138431076307e-02  4.0989732690545524e-02  4.0868684726833353e-02  4.4526710334145694e-02  4.4373172087693181e-02  4.8008869386158268e-02  4.7819482670017559e-02  5.1431122679079649e-02  5.1202604728402233e-02  5.4788491767445595e-02  5.4517641735792245e-02  5.8076115968633484e-02  5.8335314016625381e-02  6.1593757705498270e-02  6.1837703388561420e-02  6.5065222736464243e-02  6.5290367933783025e-02  6.8485245695076774e-02  6.8688101440963850e-02  7.1848649594626515e-02  7.2025792856443768e-02  7.5150355179092312e-02  7.5298435506475414e-02  7.8385390072030284e-02  7.8501136105443250e-02  8.1548897707085885e-02  8.1629123533731196e-02  8.4636146024443720e-02  8.4677757370431206e-02  8.7642535918215705e-02  8.7642536165841264e-02  9.0563609420299729e-02  9.0519104982063267e-02  9.3395057398553499e-02  9.3395057606936630e-02  9.6179993051434279e-02  9.6132728214824409e-02  9.8869807753465752e-02  9.8869807589065190e-02  1.0151044841425572e-01  1.0146056313761850e-01  1.0405076235094723e-01  1.0405076223372940e-01  1.0653939348814508e-01  1.0648703586567108e-01  1.0892279562049194e-01  1.0892279555212299e-01  1.1125216475992206e-01  1.1119749002690726e-01  1.1347171924910490e-01  1.1347171926830836e-01  1.1563505458599981e-01  1.1557822499982016e-01  1.1768431820468071e-01  1.1768431823372383e-01  1.1967534529261285e-01  1.1961652912233400e-01  1.2154838303403852e-01  1.2154838310938315e-01  1.2336134008290808e-01  1.2330071145708789e-01  1.2505273939103509e-01  1.2505273950991616e-01  1.2668239083027855e-01  1.2662012913358592e-01  1.2818727420552248e-01  1.2818727436458752e-01  1.2962892284373051e-01  1.2956521254404951e-01  1.3094295917971049e-01  1.3094295898419003e-01  1.3219245669397695e-01  1.3212748580410313e-01  1.3331187042569309e-01  1.3331187019761936e-01  1.3436562718843523e-01  1.3429958715202328e-01  1.3528720685957007e-01  1.3528720711630271e-01  1.3614219957981830e-01  1.3607528583917861e-01  1.3686330538039004e-01  1.3686330566204130e-01  1.3751708308683067e-01  1.3744949317453434e-01  1.3803565176908164e-01  1.3803565207219132e-01  1.3848634179699229e-01  1.3841827581564475e-01  1.3841827519022365e-01  1.3880089124900427e-01  1.3866444842706777e-01  1.3897886055695505e-01  1.3877389898079476e-01  1.3902004239537830e-01  1.3874658720395688e-01  1.3892446231411787e-01  1.3858270632510353e-01  1.3869237866560274e-01  1.3828268207119285e-01  6.4776117813164252e-02  1.3832428213012529e-01  1.3784717188852705e-01  1.3782089483992491e-01  1.3822922248071121e-01  1.3727706376350962e-01  1.3723452463589850e-01  1.3659824784322389e-01  1.3648692469784854e-01  1.3578509463880145e-01  1.3765797979131272e-01  1.3799745401260141e-01  1.3560508541650007e-01  1.3735844282838444e-01  1.3762916056203717e-01  1.3483838022267247e-01  1.3458984864773368e-01  1.3692253299532878e-01  1.3712475865711107e-01  1.3375900863165754e-01  1.3344218416474202e-01  1.3635073194215824e-01  1.3648489686042661e-01  1.3254801122461835e-01  1.3564375316918187e-01  1.3571045470986912e-01  1.3216318896666532e-01  1.3120654594482437e-01  1.3480254086935753e-01  1.3480254125860447e-01  1.3075408649122430e-01  1.2973589648574804e-01  1.3382826836978592e-01  1.3376249321611436e-01  1.2921622572972505e-01  1.3272233617421844e-01  1.3259187269273989e-01  1.2813747135878986e-01  1.2755108024309159e-01  1.3148636960906249e-01  1.3129246455048121e-01  1.2641280286137072e-01  1.3012221607584731e-01  1.2986627336374498e-01  1.2576024707718272e-01  1.2456354594370381e-01  1.2863194191384975e-01  1.2831551999411911e-01  1.2948266395056457e-01  1.2787295131608556e-01  1.2897175342716485e-01  1.2730465770000701e-01  1.2833402885253192e-01  1.2661118098288304e-01  1.2757009841355280e-01  1.2579318263946335e-01  1.2668069099858476e-01  1.2485144331752066e-01  1.2566665568385860e-01  1.2378686228648074e-01  1.2452896113166236e-01  1.2260045679832336e-01  1.2326869489937646e-01  1.2129336135963902e-01  1.2188706265794752e-01  1.1986682691347730e-01  1.2038538731846629e-01  1.1832221992958522e-01  1.1876510806535617e-01  1.1666102140150411e-01  1.1702777929458207e-01  1.2384544557572102e-01  1.1488482574890911e-01  1.1517506945521282e-01  1.2259147697249130e-01  1.2324892248476020e-01  1.2390215313030541e-01  1.1446105733991462e-01  1.1264899952573426e-01  1.2122180889829078e-01  1.2181925697322492e-01  1.2180851608900832e-01  1.1216929258012005e-01  1.1032448662311244e-01  1.1973946254114880e-01  1.2027762465511517e-01  1.1814764999659365e-01  1.1862729023054633e-01  1.0978995712058254e-01  1.0791562075542391e-01  1.1644976849581877e-01  1.1687170200339446e-01  1.0732742675201856e-01  1.0542687564873775e-01  1.1464939430980706e-01  1.1501448570881245e-01  1.1275027633879731e-01  1.1305943802820090e-01  1.0478621528304417e-01  1.0286285707824759e-01  1.1231388353382091e-01  1.1075632939746904e-01  1.1101051980177319e-01  1.0867162720607093e-01  1.0887184894925699e-01  1.0217096651023876e-01  1.0022829466022301e-01  1.0083795612857312e-01  9.8186658402673377e-02  9.8713465961106556e-02  9.6048028627146648e-02  1.0650039509840836e-01  1.0664769310972583e-01  9.7528033411380874e-02  9.6491438910517965e-02  1.0424700245828844e-01  1.0434246201205147e-01  9.3814472651281025e-02  1.0191595489613429e-01  1.0196069958790475e-01  9.4174024479587115e-02  9.9511886177900979e-02  9.9507075839592923e-02  9.1488152558966820e-02  9.9388674693936002e-02  9.7039549919141196e-02  9.6986378475546892e-02  1.2701782887705659e-01  9.1763467598886372e-02  9.4503811057298853e-02  9.4403504326661045e-02  9.6803979165309570e-02  9.4174007967073509e-02  9.6491422977925415e-02  9.3814456080469094e-02  9.6048012711200434e-02  9.3324215177208056e-02  9.5473284576230916e-02  9.2702885675565214e-02  9.4767009386532222e-02  9.0547141409134543e-02  8.9880557622290108e-02  8.7721959112998141e-02  1.2300221036483