<?xml version="1.0"?>
<VTKFile type="UnstructuredGrid"  version="0.1"  >
<UnstructuredGrid>
<Piece  NumberOfPoints="11833" NumberOfCells="23264">
<Points>
<DataArray  type="Float64"  NumberOfComponents="3"  format="ascii">0 0 0  1 0 0  1 1 0  0 1 0  0.009999999999981104 0 0  0.01999999999996237 0 0  0.02999999999994307 0 0  0.03999999999992186 0 0  0.04999999999989966 0 0  0.05999999999987837 0 0  0.06999999999986051 0 0  0.07999999999984518 0 0  0.0899999999998299 0 0  0.09999999999981463 0 0  0.1099999999997994 0 0  0.1199999999997832 0 0  0.1299999999997609 0 0  0.1399999999997328 0 0  0.1499999999997036 0 0  0.1599999999996745 0 0  0.1699999999996453 0 0  0.1799999999996162 0 0  0.189999999999587 0 0  0.1999999999995579 0 0  0.2099999999995288 0 0  0.2199999999994996 0 0  0.2299999999994704 0 0  0.2399999999994413 0 0  0.2499999999994121 0 0  0.259999999999383 0 0  0.2699999999993538 0 0  0.2799999999993247 0 0  0.2899999999992955 0 0  0.2999999999992664 0 0  0.3099999999992372 0 0  0.3199999999992081 0 0  0.329999999999179 0 0  0.3399999999991498 0 0  0.3499999999991207 0 0  0.3599999999990915 0 0  0.3699999999990624 0 0  0.3799999999990332 0 0  0.3899999999990041 0 0  0.3999999999989749 0 0  0.4099999999989458 0 0  0.4199999999989167 0 0  0.4299999999988875 0 0  0.4399999999988584 0 0  0.4499999999988292 0 0  0.4599999999988 0 0  0.4699999999987708 0 0  0.4799999999987418 0 0  0.4899999999987126 0 0  0.4999999999986943 0 0  0.5099999999987098 0 0  0.5199999999987361 0 0  0.5299999999987626 0 0  0.5399999999987888 0 0  0.5499999999988152 0 0  0.5599999999988415 0 0  0.5699999999988679 0 0  0.5799999999988942 0 0  0.5899999999989205 0 0  0.5999999999989468 0 0  0.6099999999989731 0 0  0.6199999999989995 0 0  0.6299999999990258 0 0  0.6399999999990521 0 0  0.6499999999990784 0 0  0.6599999999991049 0 0  0.6699999999991312 0 0  0.6799999999991574 0 0  0.6899999999991837 0 0  0.6999999999992101 0 0  0.7099999999992365 0 0  0.7199999999992628 0 0  0.7299999999992892 0 0  0.7399999999993154 0 0  0.7499999999993417 0 0  0.7599999999993681 0 0  0.7699999999993945 0 0  0.7799999999994207 0 0  0.789999999999447 0 0  0.7999999999994734 0 0  0.8099999999994998 0 0  0.8199999999995261 0 0  0.8299999999995523 0 0  0.8399999999995788 0 0  0.8499999999996051 0 0  0.8599999999996314 0 0  0.8699999999996577 0 0  0.8799999999996841 0 0  0.8899999999997104 0 0  0.8999999999997367 0 0  0.9099999999997631 0 0  0.9199999999997894 0 0  0.9299999999998156 0 0  0.939999999999842 0 0  0.9499999999998684 0 0  0.9599999999998947 0 0  0.969999999999921 0 0  0.9799999999999475 0 0  0.9899999999999737 0 0  1 0.009999999999981104 0  1 0.01999999999996237 0  1 0.02999999999994307 0  1 0.03999999999992186 0  1 0.04999999999989966 0  1 0.05999999999987837 0  1 0.06999999999986051 0  1 0.07999999999984518 0  1 0.0899999999998299 0  1 0.09999999999981463 0  1 0.1099999999997994 0  1 0.1199999999997832 0  1 0.1299999999997609 0  1 0.1399999999997328 0  1 0.1499999999997036 0  1 0.1599999999996745 0  1 0.1699999999996453 0  1 0.1799999999996162 0  1 0.189999999999587 0  1 0.1999999999995579 0  1 0.2099999999995288 0  1 0.2199999999994996 0  1 0.2299999999994704 0  1 0.2399999999994413 0  1 0.2499999999994121 0  1 0.259999999999383 0  1 0.2699999999993538 0  1 0.2799999999993247 0  1 0.2899999999992955 0  1 0.2999999999992664 0  1 0.3099999999992372 0  1 0.3199999999992081 0  1 0.329999999999179 0  1 0.3399999999991498 0  1 0.3499999999991207 0  1 0.3599999999990915 0  1 0.3699999999990624 0  1 0.3799999999990332 0  1 0.3899999999990041 0  1 0.3999999999989749 0  1 0.4099999999989458 0  1 0.4199999999989167 0  1 0.4299999999988875 0  1 0.4399999999988584 0  1 0.4499999999988292 0  1 0.4599999999988 0  1 0.4699999999987708 0  1 0.4799999999987418 0  1 0.4899999999987126 0  1 0.4999999999986943 0  1 0.5099999999987098 0  1 0.5199999999987361 0  1 0.5299999999987626 0  1 0.5399999999987888 0  1 0.5499999999988152 0  1 0.5599999999988415 0  1 0.5699999999988679 0  1 0.5799999999988942 0  1 0.5899999999989205 0  1 0.5999999999989468 0  1 0.6099999999989731 0  1 0.6199999999989995 0  1 0.6299999999990258 0  1 0.6399999999990521 0  1 0.6499999999990784 0  1 0.6599999999991049 0  1 0.6699999999991312 0  1 0.6799999999991574 0  1 0.6899999999991837 0  1 0.6999999999992101 0  1 0.7099999999992365 0  1 0.7199999999992628 0  1 0.7299999999992892 0  1 0.7399999999993154 0  1 0.7499999999993417 0  1 0.7599999999993681 0  1 0.7699999999993945 0  1 0.7799999999994207 0  1 0.789999999999447 0  1 0.7999999999994734 0  1 0.8099999999994998 0  1 0.8199999999995261 0  1 0.8299999999995523 0  1 0.8399999999995788 0  1 0.8499999999996051 0  1 0.8599999999996314 0  1 0.8699999999996577 0  1 0.8799999999996841 0  1 0.8899999999997104 0  1 0.8999999999997367 0  1 0.9099999999997631 0  1 0.9199999999997894 0  1 0.9299999999998156 0  1 0.939999999999842 0  1 0.9499999999998684 0  1 0.9599999999998947 0  1 0.969999999999921 0  1 0.9799999999999475 0  1 0.9899999999999737 0  0.9899999999999584 1 0  0.9799999999999167 1 0  0.9699999999998751 1 0  0.9599999999998334 1 0  0.9499999999997918 1 0  0.9399999999997501 1 0  0.9299999999997085 1 0  0.9199999999996669 1 0  0.9099999999996251 1 0  0.8999999999995835 1 0  0.8899999999995418 1 0  0.879999999999508 1 0  0.8699999999995218 1 0  0.8599999999995834 1 0  0.8499999999996528 1 0  0.8399999999997222 1 0  0.8299999999997916 1 0  0.819999999999861 1 0  0.8099999999999303 1 0  0.7999999999999997 1 0  0.7900000000000691 1 0  0.7800000000001385 1 0  0.7700000000002079 1 0  0.7600000000002772 1 0  0.7500000000003466 1 0  0.7400000000004161 1 0  0.7300000000004854 1 0  0.7200000000005549 1 0  0.7100000000006242 1 0  0.7000000000006936 1 0  0.690000000000763 1 0  0.6800000000008324 1 0  0.6700000000009018 1 0  0.660000000000971 1 0  0.6500000000010404 1 0  0.6400000000011098 1 0  0.6300000000011791 1 0  0.6200000000012484 1 0  0.6100000000013178 1 0  0.6000000000013872 1 0  0.5900000000014565 1 0  0.5800000000015259 1 0  0.5700000000015952 1 0  0.5600000000016645 1 0  0.5500000000017339 1 0  0.5400000000018033 1 0  0.5300000000018725 1 0  0.5200000000019419 1 0  0.5100000000020113 1 0  0.500000000002059 1 0  0.490000000002039 1 0  0.4800000000019974 1 0  0.4700000000019557 1 0  0.4600000000019141 1 0  0.4500000000018726 1 0  0.4400000000018309 1 0  0.4300000000017893 1 0  0.4200000000017478 1 0  0.4100000000017061 1 0  0.4000000000016645 1 0  0.3900000000016228 1 0  0.3800000000015813 1 0  0.3700000000015397 1 0  0.360000000001498 1 0  0.3500000000014565 1 0  0.3400000000014148 1 0  0.3300000000013732 1 0  0.3200000000013316 1 0  0.3100000000012899 1 0  0.3000000000012484 1 0  0.2900000000012067 1 0  0.2800000000011651 1 0  0.2700000000011236 1 0  0.2600000000010819 1 0  0.2500000000010403 1 0  0.2400000000009987 1 0  0.2300000000009571 1 0  0.2200000000009155 1 0  0.2100000000008738 1 0  0.2000000000008322 1 0  0.1900000000007906 1 0  0.180000000000749 1 0  0.1700000000007074 1 0  0.1600000000006658 1 0  0.1500000000006242 1 0  0.1400000000005825 1 0  0.130000000000541 1 0  0.1200000000004994 1 0  0.1100000000004577 1 0  0.1000000000004161 1 0  0.09000000000037445 1 0  0.08000000000033292 1 0  0.07000000000029127 1 0  0.06000000000024963 1 0  0.0500000000002081 1 0  0.04000000000016646 1 0  0.03000000000012482 1 0  0.02000000000008328 1 0  0.01000000000004164 1 0  0 0.9899999999999584 0  0 0.9799999999999167 0  0 0.9699999999998751 0  0 0.9599999999998334 0  0 0.9499999999997918 0  0 0.9399999999997501 0  0 0.9299999999997085 0  0 0.9199999999996669 0  0 0.9099999999996251 0  0 0.8999999999995835 0  0 0.8899999999995418 0  0 0.879999999999508 0  0 0.8699999999995218 0  0 0.8599999999995834 0  0 0.8499999999996528 0  0 0.8399999999997222 0  0 0.8299999999997916 0  0 0.819999999999861 0  0 0.8099999999999303 0  0 0.7999999999999997 0  0 0.7900000000000691 0  0 0.7800000000001385 0  0 0.7700000000002079 0  0 0.7600000000002772 0  0 0.7500000000003466 0  0 0.7400000000004161 0  0 0.7300000000004854 0  0 0.7200000000005549 0  0 0.7100000000006242 0  0 0.7000000000006936 0  0 0.690000000000763 0  0 0.6800000000008324 0  0 0.6700000000009018 0  0 0.660000000000971 0  0 0.6500000000010404 0  0 0.6400000000011098 0  0 0.6300000000011791 0  0 0.6200000000012484 0  0 0.6100000000013178 0  0 0.6000000000013872 0  0 0.5900000000014565 0  0 0.5800000000015259 0  0 0.5700000000015952 0  0 0.5600000000016645 0  0 0.5500000000017339 0  0 0.5400000000018033 0  0 0.5300000000018725 0  0 0.5200000000019419 0  0 0.5100000000020113 0  0 0.500000000002059 0  0 0.490000000002039 0  0 0.4800000000019974 0  0 0.4700000000019557 0  0 0.4600000000019141 0  0 0.4500000000018726 0  0 0.4400000000018309 0  0 0.4300000000017893 0  0 0.4200000000017478 0  0 0.4100000000017061 0  0 0.4000000000016645 0  0 0.3900000000016228 0  0 0.3800000000015813 0  0 0.3700000000015397 0  0 0.360000000001498 0  0 0.3500000000014565 0  0 0.3400000000014148 0  0 0.3300000000013732 0  0 0.3200000000013316 0  0 0.3100000000012899 0  0 0.3000000000012484 0  0 0.2900000000012067 0  0 0.2800000000011651 0  0 0.2700000000011236 0  0 0.2600000000010819 0  0 0.2500000000010403 0  0 0.2400000000009987 0  0 0.2300000000009571 0  0 0.2200000000009155 0  0 0.2100000000008738 0  0 0.2000000000008322 0  0 0.1900000000007906 0  0 0.180000000000749 0  0 0.1700000000007074 0  0 0.1600000000006658 0  0 0.1500000000006242 0  0 0.1400000000005825 0  0 0.130000000000541 0  0 0.1200000000004994 0  0 0.1100000000004577 0  0 0.1000000000004161 0  0 0.09000000000037445 0  0 0.08000000000033292 0  0 0.07000000000029127 0  0 0.06000000000024963 0  0 0.0500000000002081 0  0 0.04000000000016646 0  0 0.03000000000012482 0  0 0.02000000000008328 0  0 0.01000000000004164 0  0.4950000000020247 0.9913397459621618 0  0.009211990098867707 0.4961881723756173 0  0.504999999998702 0.008660254037843167 0  0.990998005876526 0.504174558101478 0  0.008805615027760829 0.5847550863993457 0  0.5850000000017108 0.9913397459623841 
[...]
<PointData  Scalars="f_1348"> 
<DataArray  type="Float64"  Name="f_1348"  format="ascii">0.0000000000000000e+00  0.0000000000000000e+00  0.0000000000000000e+00  0.0000000000000000e+00  0.0000000000000000e+00  0.0000000000000000e+00  0.0000000000000000e+00  0.0000000000000000e+00  0.0000000000000000e+00  0.0000000000000000e+00  0.0000000000000000e+00  0.0000000000000000e+00  0.0000000000000000e+00  0.0000000000000000e+00  0.0000000000000000e+00  0.0000000000000000e+00  0.0000000000000000e+00  0.0000000000000000e+00  0.0000000000000000e+00  0.0000000000000000e+00  0.0000000000000000e+00  0.0000000000000000e+00  0.0000000000000000e+00  0.0000000000000000e+00  0.0000000000000000e+00  0.0000000000000000e+00  0.0000000000000000e+00  0.0000000000000000e+00  0.0000000000000000e+00  0.0000000000000000e+00  0.0000000000000000e+00  0.0000000000000000e+00  0.0000000000000000e+00  0.0000000000000000e+00  0.0000000000000000e+00  0.0000000000000000e+00  0.0000000000000000e+00  0.0000000000000000e+00  0.0000000000000000e+00  0.0000000000000000e+00  0.0000000000000000e+00  0.0000000000000000e+00  0.0000000000000000e+00  0.0000000000000000e+00  0.0000000000000000e+00  0.0000000000000000e+00  0.0000000000000000e+00  0.0000000000000000e+00  0.0000000000000000e+00  0.0000000000000000e+00  0.0000000000000000e+00  0.0000000000000000e+00  0.0000000000000000e+00  0.0000000000000000e+00  0.0000000000000000e+00  0.0000000000000000e+00  0.0000000000000000e+00  0.0000000000000000e+00  0.0000000000000000e+00  0.0000000000000000e+00  0.0000000000000000e+00  0.0000000000000000e+00  0.0000000000000000e+00  0.0000000000000000e+00  0.0000000000000000e+00  0.0000000000000000e+00  0.0000000000000000e+00  0.0000000000000000e+00  0.0000000000000000e+00  0.0000000000000000e+00  0.0000000000000000e+00  0.0000000000000000e+00  0.0000000000000000e+00  0.0000000000000000e+00  0.0000000000000000e+00  0.0000000000000000e+00  0.0000000000000000e+00  0.0000000000000000e+00  0.0000000000000000e+00  0.0000000000000000e+00  0.0000000000000000e+00  0.0000000000000000e+00  0.0000000000000000e+00  0.0000000000000000e+00  0.0000000000000000e+00  0.0000000000000000e+00  0.0000000000000000e+00  0.0000000000000000e+00  0.0000000000000000e+00  0.0000000000000000e+00  0.0000000000000000e+00  0.0000000000000000e+00  0.0000000000000000e+00  0.0000000000000000e+00  0.0000000000000000e+00  0.0000000000000000e+00  0.0000000000000000e+00  0.0000000000000000e+00  0.0000000000000000e+00  0.0000000000000000e+00  0.0000000000000000e+00  0.0000000000000000e+00  0.0000000000000000e+00  0.0000000000000000e+00  0.0000000000000000e+00  0.0000000000000000e+00  0.0000000000000000e+00  0.0000000000000000e+00  0.0000000000000000e+00  0.0000000000000000e+00  0.0000000000000000e+00  0.0000000000000000e+00  0.0000000000000000e+00  0.0000000000000000e+00  0.0000000000000000e+00  0.0000000000000000e+00  0.0000000000000000e+00  0.0000000000000000e+00  0.0000000000000000e+00  0.0000000000000000e+00  0.0000000000000000e+00  0.0000000000000000e+00  0.0000000000000000e+00  0.0000000000000000e+00  0.0000000000000000e+00  0.0000000000000000e+00  0.0000000000000000e+00  0.0000000000000000e+00  0.0000000000000000e+00  0.0000000000000000e+00  0.0000000000000000e+00  0.0000000000000000e+00  0.0000000000000000e+00  0.0000000000000000e+00  0.0000000000000000e+00  0.0000000000000000e+00  0.0000000000000000e+00  0.0000000000000000e+00  0.0000000000000000e+00  0.0000000000000000e+00  0.0000000000000000e+00  0.0000000000000000e+00  0.0000000000000000e+00  0.0000000000000000e+00  0.0000000000000000e+00  0.0000000000000000e+00  0.0000000000000000e+00  0.0000000000000000e+00  0.0000000000000000e+00  0.0000000000000000e+00  0.0000000000000000e+00  0.0000000000000000e+00  0.0000000000000000e+00  0.0000000000000000e+00  0.0000000000000000e+00  0.0000000000000000e+00  0.0000000000000000e+00  0.0000000000000000e+00  0.0000000000000000e+00  0.0000000000000000e+00  0.0000000000000000e+00  0.0000000000000000e+00  0.0000000000000000e+00  0.0000000000000000e+00  0.0000000000000000e+00  0.0000000000000000e+00  0.0000000000000000e+00  0.0000000000000000e+00  0.0000000000000000e+00  0.0000000000000000e+00  0.0000000000000000e+00  0.0000000000000000e+00  0.0000000000000000e+00  0.0000000000000000e+00  0.0000000000000000e+00  0.0000000000000000e+00  0.0000000000000000e+00  0.0000000000000000e+00  0.0000000000000000e+00  0.0000000000000000e+00  0.0000000000000000e+00  0.0000000000000000e+00  0.0000000000000000e+00  0.0000000000000000e+00  0.0000000000000000e+00  0.0000000000000000e+00  0.0000000000000000e+00  0.0000000000000000e+00  0.0000000000000000e+00  0.0000000000000000e+00  0.0000000000000000e+00  0.0000000000000000e+00  0.0000000000000000e+00  0.0000000000000000e+00  0.0000000000000000e+00  0.0000000000000000e+00  0.0000000000000000e+00  0.0000000000000000e+00  0.0000000000000000e+00  0.0000000000000000e+00  0.0000000000000000e+00  0.0000000000000000e+00  0.0000000000000000e+00  0.0000000000000000e+00  0.0000000000000000e+00  0.0000000000000000e+00  0.0000000000000000e+00  0.0000000000000000e+00  0.0000000000000000e+00  0.0000000000000000e+00  0.0000000000000000e+00  0.0000000000000000e+00  0.0000000000000000e+00  0.0000000000000000e+00  0.0000000000000000e+00  0.0000000000000000e+00  0.0000000000000000e+00  0.0000000000000000e+00  0.0000000000000000e+00  0.0000000000000000e+00  0.0000000000000000e+00  0.0000000000000000e+00  0.0000000000000000e+00  0.0000000000000000e+00  0.0000000000000000e+00  0.0000000000000000e+00  0.0000000000000000e+00  0.0000000000000000e+00  0.0000000000000000e+00  0.0000000000000000e+00  0.0000000000000000e+00  0.0000000000000000e+00  0.0000000000000000e+00  0.0000000000000000e+00  0.0000000000000000e+00  0.0000000000000000e+00  0.0000000000000000e+00  0.0000000000000000e+00  0.0000000000000000e+00  0.0000000000000000e+00  0.0000000000000000e+00  0.0000000000000000e+00  0.0000000000000000e+00  0.0000000000000000e+00  0.0000000000000000e+00  0.0000000000000000e+00  0.0000000000000000e+00  0.0000000000000000e+00  0.0000000000000000e+00  0.0000000000000000e+00  0.0000000000000000e+00  0.0000000000000000e+00  0.0000000000000000e+00  0.0000000000000000e+00  0.0000000000000000e+00  0.0000000000000000e+00  0.0000000000000000e+00  0.0000000000000000e+00  0.0000000000000000e+00  0.0000000000000000e+00  0.0000000000000000e+00  0.0000000000000000e+00  0.0000000000000000e+00  0.0000000000000000e+00  0.0000000000000000e+00  0.0000000000000000e+00  0.0000000000000000e+00  0.0000000000000000e+00  0.0000000000000000e+00  0.0000000000000000e+00  0.0000000000000000e+00  0.0000000000000000e+00  0.0000000000000000e+00  0.0000000000000000e+00  0.0000000000000000e+00  0.0000000000000000e+00  0.0000000000000000e+00  0.0000000000000000e+00  0.0000000000000000e+00  0.0000000000000000e+00  0.0000000000000000e+00  0.0000000000000000e+00  0.0000000000000000e+00  0.0000000000000000e+00  0.0000000000000000e+00  0.0000000000000000e+00  0.0000000000000000e+00  0.0000000000000000e+00  0.0000000000000000e+00  0.0000000000000000e+00  0.0000000000000000e+00  0.0000000000000000e+00  0.0000000000000000e+00  0.0000000000000000e+00  0.0000000000000000e+00  0.0000000000000000e+00  0.0000000000000000e+00  0.0000000000000000e+00  0.0000000000000000e+00  0.0000000000000000e+00  0.0000000000000000e+00  0.0000000000000000e+00  0.0000000000000000e+00  0.0000000000000000e+00  0.0000000000000000e+00  0.0000000000000000e+00  0.0000000000000000e+00  0.0000000000000000e+00  0.0000000000000000e+00  0.0000000000000000e+00  0.0000000000000000e+00  0.0000000000000000e+00  0.0000000000000000e+00  0.0000000000000000e+00  0.0000000000000000e+00  0.0000000000000000e+00  0.0000000000000000e+00  0.0000000000000000e+00  0.0000000000000000e+00  0.0000000000000000e+00  0.0000000000000000e+00  0.0000000000000000e+00  0.0000000000000000e+00  0.0000000000000000e+00  0.0000000000000000e+00  0.0000000000000000e+00  0.0000000000000000e+00  0.0000000000000000e+00  0.0000000000000000e+00  0.0000000000000000e+00  0.0000000000000000e+00  0.0000000000000000e+00  0.0000000000000000e+00  0.0000000000000000e+00  0.0000000000000000e+00  0.0000000000000000e+00  0.0000000000000000e+00  0.0000000000000000e+00  0.0000000000000000e+00  0.0000000000000000e+00  0.0000000000000000e+00  0.0000000000000000e+00  0.0000000000000000e+00  0.0000000000000000e+00  0.0000000000000000e+00  0.0000000000000000e+00  0.0000000000000000e+00  0.0000000000000000e+00  0.0000000000000000e+00  0.0000000000000000e+00  0.0000000000000000e+00  0.0000000000000000e+00  0.0000000000000000e+00  0.0000000000000000e+00  0.0000000000000000e+00  0.0000000000000000e+00  0.0000000000000000e+00  0.0000000000000000e+00  0.0000000000000000e+00  0.0000000000000000e+00  0.0000000000000000e+00  0.0000000000000000e+00  0.0000000000000000e+00  0.0000000000000000e+00  0.0000000000000000e+00  0.0000000000000000e+00  0.0000000000000000e+00  0.0000000000000000e+00  0.0000000000000000e+00  0.0000000000000000e+00  0.0000000000000000e+00  0.0000000000000000e+00  0.0000000000000000e+00  0.0000000000000000e+00  0.0000000000000000e+00  0.0000000000000000e+00  0.0000000000000000e+00  0.0000000000000000e+00  0.0000000000000000e+00  0.0000000000000000e+00  0.0000000000000000e+00  0.0000000000000000e+00  0.0000000000000000e+00  0.0000000000000000e+00  0.0000000000000000e+00  0.0000000000000000e+00  0.0000000000000000e+00  0.0000000000000000e+00  0.0000000000000000e+00  0.0000000000000000e+00  0.0000000000000000e+00  0.0000000000000000e+00  0.0000000000000000e+00  0.0000000000000000e+00  0.0000000000000000e+00  0.0000000000000000e+00  0.0000000000000000e+00  0.0000000000000000e+00  0.0000000000000000e+00  0.0000000000000000e+00  5.4760224037148329e-06  5.8252595889664945e-06  5.4760550996033609e-06  5.6921825199073257e-06  5.3721954621102480e-06  5.2825897806836359e-06  5.2826062598231390e-06  5.2834608905740839e-06  5.2345907871507739e-06  5.1328443588667726e-06  5.1741161259277968e-06  4.6376364186700319e-06  4.7572330035594817e-06  4.7593283545122530e-06  5.0642270899083523e-06  4.2181349495765228e-06  4.6696558013861628e-06  4.0611604743996705e-06  4.6694009232030344e-06  4.6697772951038082e-06  4.0507364676208636e-06  4.1804952027643704e-06  4.2210745227167422e-06  3.5913141230881227e-06  3.9329669077501542e-06  3.6187171176467930e-06  4.0416487473677397e-06  3.2444492320374915e-06  3.2883187729676172e-06  3.6238136817147441e-06  3.7303717134207459e-06  3.1953287305405628e-06  3.1491403097683259e-06  2.7031638391023250e-06  3.1490797562774790e-06  2.7943799408368236e-06  2.2027963031249405e-06  2.1028615921057913e-06  2.5627046578881614e-06  2.6876947954572902e-06  2.4094289774370306e-06  2.4100386195540885e-06  2.5004316817534530e-06  2.4093867494319659e-06  1.9503702566125980e-06  1.7739857514310527e-06  1.7737490765184147e-06  1.8312024999732949e-06  5.4220609488548260e-06  5.6473356558096783e-06  5.3029826023026627e-06  5.1801555472736770e-06  1.7740101674986227e-06  1.9461530893186598e-06  1.7771873634346286e-06  5.4980530254653380e-06  4.9914824691162894e-06  1.7740301120077474e-06  4.9913503029307034e-06  5.1643565994094403e-06  5.0598531049238145e-06  5.4219765546572326e-06  5.6255158824193579e-06  5.4226496773176281e-06  5.8077754245138266e-06  5.4220605540186635e-06  5.0598095065684732e-06  5.2405007786391348e-06  1.1107739241031520e-06  1.0828762347585123e-06  1.1106274098296728e-06  1.0044416219912356e-06  1.1104208043786079e-06  1.0746474267301108e-06  1.1362207507983856e-06  1.0823152531816248e-06  3.9086934934682249e-06  4.4217406298068423e-06  4.2741862662837768e-06  3.5568386918304716e-06  4.2743963222500773e-06  2.9348499055610318e-06  4.2788255064918852e-06  3.5754683574945578e-06  4.9342640290330540e-06  4.3548172163046989e-06  4.0299656187034998e-06  3.0289393922081089e-06  4.4807594987907872e-06  3.6858860090389611e-06  4.6131387525806774e-06  3.8416735567150197e-06  6.0092298946274013e-07  5.3562881352914860e-07  6.0131894055363170e-07  6.4769012068184322e-07  6.0119582780009034e-07  6.1436949207518960e-07  5.3266881381403704e-07  6.2726084185200879e-07  2.0958318410676547e-06  2.0995303420786861e-06  5.3629082173009495e-06  5.4598153449417088e-06  5.5116356982320214e-06  5.6388982356385908e-06  5.4706181597618681e-06  5.5925422045676455e-06  5.5402128297267362e-06  5.6751463375458203e-06  4.7558972734912861e-06  5.1163702541981987e-06  4.7107660456645493e-06  5.4706543524200330e-06  1.4451442863800138e-06  1.5417542744873514e-06  1.9177631892608492e-06  2.0347867214038793e-06  2.7134905737019065e-06  2.0958574940246308e-06  2.6055316848640668e-06  5.1231459506001205e-06  2.0300767066852448e-06  1.4443139792012784e-06  2.6447852402968079e-06  4.9734789888107430e-06  2.7133133599226169e-06  1.4453278683998555e-06  5.1240024310501312e-06  2.0958439941515105e-06  4.8401199638344106e-06  4.4807627381327534e-06  5.1213902853190528e-06  4.3899977115179337e-06  5.1227663870302895e-06  1.4451421739538177e-06  5.1237032833031030e-06  4.7255588124205157e-06  4.8401581789018575e-06  4.2812101701905392e-06  2.0956490874747295e-06  5.3629212166069531e-06  1.5670204036301929e-06  4.9185669722839761e-06  4.9170856647747137e-06  5.1814412584321033e-06  5.0739975304558072e-06  5.7325461826563758e-06  5.6934376061326350e-06  1.4450853192355581e-06  5.3629076233359978e-06  4.2722737158767047e-06  5.1814239940162830e-06  1.6013920856275608e-06  3.8807652871561981e-06  4.9182262607487379e-06  4.2745625435796465e-06  3.3225389147265915e-06  2.6649427284598251e-06  4.2741821646251372e-06  4.4405371779951644e-06  3.0068294253372606e-06  3.0035522030267928e-06  5.5619935672255576e-06  2.5827417848303754e-07  2.2979464762375394e-07  2.5811689102392681e-07  2.8388638384014021e-07  5.4706182869876229e-06  1.0943939583566660e-05  1.0949342325080635e-05  1.6411857291210121e-05  1.6411857166091313e-05  2.1866272812229635e-05  2.1855482988911893e-05  2.7299110202204479e-05  2.7272169140484400e-05  3.2702330780951891e-05  3.2653912816287971e-05  3.8067947675223864e-05  3.7992773536355871e-05  4.3388040266435299e-05  4.3452374368794242e-05  4.8751038921650280e-05  4.8654768516662972e-05  5.3993732107756948e-05  5.3860387146709747e-05  5.9172737539246610e-05  5.8997259640297351e-05  6.4280451379461953e-05  6.4057872048163254e-05  6.9309396089163553e-05  6.9034846567109765e-05  7.4252233940815538e-05  7.3920954869114954e-05  7.9101780276171515e-05  7.8709131155485135e-05  8.3851016482618175e-05  8.4226797390226903e-05  8.8934560148159830e-05  8.9288250141129140e-05  9.3952036164040388e-05  9.4278487405562871e-05  9.8895827283486040e-05  9.9189976875396142e-05  1.0375843881305424e-04  1.0401531870841774e-04  1.0853251220064173e-04  1.0874725893716353e-04  1.1321083837462955e-04  1.1337870261088493e-04  1.1778637080953625e-04  1.1790272664596882e-04  1.2225223829412062e-04  1.2231259236196421e-04  1.2660175737853443e-04  1.2660175767968977e-04  1.3082844447757672e-04  1.3076388841324477e-04  1.3492602736547556e-04  1.3492602760781174e-04  1.3895702427443247e-04  1.3888845773695467e-04  1.4285089581814070e-04  1.4285089564104489e-04  1.4667427007183166e-04  1.4660189547774461e-04  1.5035290365880382e-04  1.5035290355114739e-04  1.5395733782057759e-04  1.5388136940668401e-04  1.5740984422759263e-04  1.5740984419136407e-04  1.6078466872133942e-04  1.6070533136383522e-04  1.6400082813898789e-04  1.6400082810374140e-04  1.6713605303792029e-04  1.6705358158925832e-04  1.7010634517973844e-04  1.7010634528473245e-04  1.7299268991678157e-04  1.7290732850611733e-04  1.7570832240952337e-04  1.7570832258106739e-04  1.7833724303572442e-04  1.7824924434868222e-04  1.8079017730270483e-04  1.8079017753643096e-04  1.8315389191721741e-04  1.8306351644693781e-04  1.8533686700636249e-04  1.8533686729706999e-04  1.8742837875456144e-04  1.8733589466473830e-04  1.8933493317136561e-04  1.8933493282940236e-04  1.9114805061243390e-04  1.9105373113824283e-04  1.9277254046496148e-04  1.9277254007770051e-04  1.9430189687700162e-04  1.9420602039714200e-04  1.9563951308227637e-04  1.9563951350890974e-04  1.9688058184486737e-04  1.9678343290317009e-04  1.9792736531691477e-04  1.9792736577724042e-04  1.9887647235448846e-04  1.9877833852993733e-04  1.9962932451619129e-04  1.9962932500495784e-04  2.0028366037837605e-04  2.0018483316722136e-04  2.0018483216472830e-04  2.0074035271959957e-04  2.0054224608022722e-04  2.0099875045506702e-04  2.0070115926393975e-04  2.0105854449349687e-04  2.0066150765444139e-04  2.0091976877297730e-04  2.0042357021535039e-04  2.0058280017941558e-04  1.9998796839440250e-04  9.3532865804227654e-05  2.0004835783649734e-04  1.9935566495488273e-04  1.9931750176846609e-04  1.9991033938196681e-04  1.9852796218157071e-04  1.9846623243317921e-04  1.9754249978918331e-04  1.9738093801997242e-04  1.9636208710855201e-04  1.9908097415362929e-04  1.9957384882303850e-04  1.9610085275312592e-04  1.9864611582049777e-04  1.9903916498686318e-04  1.9498788904665160e-04  1.9462723990293127e-04  1.9801330343701434e-04  1.9830690926715791e-04  1.9342126175071300e-04  1.9296155372562176e-04  1.9718325599145229e-04  1.9737804452799255e-04  1.9166375127007389e-04  1.9615703352751076e-04  1.9625387338184007e-04  1.9110543802831849e-04  1.8971709203060143e-04  1.9493603525435290e-04  1.9493603584491514e-04  1.8906072454709597e-04  1.8758320512326341e-04  1.9352199703502002e-04  1.9342650637414391e-04  1.8682943113944401e-04  1.9191698825784672e-04  1.9172759029136555e-04  1.8526419640848182e-04  1.8441375979317057e-04  1.9012340809667513e-04  1.8984191960105359e-04  1.8276235443816466e-04  1.8814398116664198e-04  1.8777244820948627e-04  1.8181609445355287e-04  1.8008014819745159e-04  1.8598175258363416e-04  1.8552244655410758e-04  1.8721560683260396e-04  1.8488005257700615e-04  1.8647400656239486e-04  1.8405520460758256e-04  1.8554837925722296e-04  1.8304871665844060e-04  1.8443963838515344e-04  1.8186158199628264e-04  1.8314887812263936e-04  1.8049497216179612e-04  1.8167737227486056e-04  1.7895023581363409e-04  1.8002657301867560e-04  1.7722889739757328e-04  1.7819810946971616e-04  1.7533265564225606e-04  1.7619378607481101e-04  1.7326338188292312e-04  1.7401558083139689e-04  1.7102311821482022e-04  1.7166564333566582e-04  1.6861407547809126e-04  1.6914629266137033e-04  1.7903899867095652e-04  1.6603863107614227e-04  1.6646001507137690e-04  1.7722022466841312e-04  1.7817321067284284e-04  1.7911826473887682e-04  1.6542383855919999e-04  1.6279667872201616e-04  1.7523370882345174e-04  1.7609949200900711e-04  1.7608521307120904e-04  1.6210089799720682e-04  1.5942655827888967e-04  1.7308386559426882e-04  1.7386348811658178e-04  1.7077538911965687e-04  1.7146997231929810e-04  1.5865144084111033e-04  1.5593460574566133e-04  1.6831324447809531e-04  1.6892398647774877e-04  1.5508186436889796e-04  1.5232735875593775e-04  1.6570265845077906e-04  1.6623083162153331e-04  1.6294910980534335e-04  1.6339605810700150e-04  1.5139876430161848e-04  1.4861154452542688e-04  1.6231780188315353e-04  1.6005831911869193e-04  1.6042545531878987e-04  1.5703623815729913e-04  1.5732504093409768e-04  1.4760892265502264e-04  1.4479406745321021e-04  1.4567766307127858e-04  1.4183631795368546e-04  1.4260001529669357e-04  1.3873859307028679e-04  1.5388903883451833e-04  1.5410104976944710e-04  1.4088199639971443e-04  1.3938163843911722e-04  1.5062310176554682e-04  1.5075992223050692e-04  1.3550394985576748e-04  1.4724500444097101e-04  1.4730829238628255e-04  1.3602570861859264e-04  1.4376150904050222e-04  1.4375297568955536e-04  1.3213558048485582e-04  1.4358477352236981e-04  1.4017954990959644e-04  1.4010095636624790e-04  1.8364008243644406e-04  1.3253553770331580e-04  1.3650622072200558e-04  1.3635937449695015e-04  1.3983541730085055e-04  1.3602568449078999e-04  1.3938161514712776e-04  1.3550392569483302e-04  1.3873856985292604e-04  1.3479321115879124e-04  1.3790564092503203e-04  1.3389299386838956e-04  1.3688252884987745e-04  1.3077132259859916e-04  1.2980579945150706e-04  1.2668042817235058e-04  1.7781636052717