<?xml version="1.0"?>
<VTKFile type="UnstructuredGrid"  version="0.1"  >
<UnstructuredGrid>
<Piece  NumberOfPoints="1351" NumberOfCells="2562">
<Points>
<DataArray  type="Float64"  NumberOfComponents="3"  format="ascii">0 0 0  1 0 0  1 0.8 0  0.8 1 0  0 1 0  0.04999999999989965 0 0  0.09999999999981467 0 0  0.1499999999997036 0 0  0.1999999999995579 0 0  0.2499999999994121 0 0  0.2999999999992664 0 0  0.3499999999991206 0 0  0.3999999999989749 0 0  0.4499999999988292 0 0  0.4999999999986943 0 0  0.5499999999988151 0 0  0.5999999999989468 0 0  0.6499999999990784 0 0  0.69999999999921 0 0  0.7499999999993417 0 0  0.7999999999994734 0 0  0.8499999999996051 0 0  0.8999999999997368 0 0  0.9499999999998684 0 0  1 0.04760064517703904 0  1 0.09293547369859796 0  1 0.1361123347647636 0  1 0.1772339446896692 0  1 0.2163981474523055 0  1 0.2536981035911857 0  1 0.2892225557413462 0  1 0.3230560258697512 0  1 0.3552789986794789 0  1 0.3859681333207298 0  1 0.415196447333281 0  1 0.4430334730497988 0  1 0.4695454457650237 0  1 0.4947954273057558 0  1 0.5188434944404815 0  1 0.5417468542718421 0  1 0.5635600026220204 0  1 0.5843348283323352 0  1 0.6041207610617765 0  1 0.6229648698986657 0  1 0.6409119876527072 0  1 0.6580048103873346 0  1 0.6742840004843429 0  1 0.689788292716178 0  1 0.704554571104596 0  1 0.7186179648498481 0  1 0.7320119330818037 0  1 0.7447683411348813 0  1 0.7569175332776136 0  1 0.7684884163604542 0  1 0.7795085179624083 0  1 0.7900040556372674 0  0.8002409087606513 0.990186465100201 0  0.8009630546731077 0.9803965718574617 0  0.8021646980236028 0.9706539049972966 0  0.803842943939466 0.9609819354956644 0  0.8059937493920768 0.9514039638956462 0  0.8086119328939715 0.941943064415883 0  0.8116911870167695 0.9326220291723868 0  0.8152240935828696 0.9234633133214675 0  0.8192021414873284 0.9144889810771035 0  0.8236157472564478 0.9057206523988488 0  0.8284542781220303 0.8971794509576697 0  0.8337060777056721 0.8888859531473721 0  0.8393584939038552 0.880860138831866 0  0.8453979095602623 0.8731213428835916 0  0.8518097751700787 0.8656882087646161 0  0.8585786440513563 0.8585786434740248 0  0.8656882093011211 0.8518097746838188 0  0.8731213434169163 0.845397909122574 0  0.8808601393515808 0.8393584935184084 0  0.8888859536351724 0.8337060773797342 0  0.89717945139612 0.8284542778592333 0  0.9057206528045731 0.8236157470395837 0  0.9144889814663504 0.8192021413032283 0  0.9234633136561681 0.8152240934442321 0  0.9326220294300958 0.8116911869245598 0  0.9419430646417533 0.8086119328254545 0  0.9514039641007579 0.805993749340699 0  0.960981935650111 0.8038429439087447 0  0.9706539051342923 0.8021646980032814 0  0.9803965719143838 0.8009630546675013 0  0.9901864651128812 0.8002409087600284 0  0.7900040556373028 1 0  0.7795085179624827 1 0  0.7684884163605709 1 0  0.7569175332777771 1 0  0.744768341135096 1 0  0.7320119330820745 1 0  0.7186179648501801 1 0  0.7045545711049943 1 0  0.6897882927166487 1 0  0.6742840004848916 1 0  0.6580048103879685 1 0  0.6409119876534327 1 0  0.6229648698994905 1 0  0.6041207610627086 1 0  0.5843348283333843 1 0  0.5635600026231959 1 0  0.5417468542731527 1 0  0.518843494441938 1 0  0.4947954273073689 1 0  0.4695454457668065 1 0  0.4430334730517651 1 0  0.4151964473354446 1 0  0.3859681333229472 1 0  0.3552789986815669 1 0  0.3230560258716914 1 0  0.2892225557431185 1 0  0.253698103592768 1 0  0.2163981474536749 1 0  0.1772339446907993 1 0  0.1361123347656265 1 0  0.0929354736991761 1 0  0.04760064517735429 1 0  0 0.9499999999997918 0  0 0.8999999999995836 0  0 0.8499999999996529 0  0 0.7999999999999998 0  0 0.7500000000003466 0  0 0.7000000000006934 0  0 0.6500000000010401 0  0 0.6000000000013869 0  0 0.5500000000017335 0  0 0.5000000000020587 0  0 0.4500000000018723 0  0 0.4000000000016644 0  0 0.3500000000014564 0  0 0.3000000000012483 0  0 0.2500000000010403 0  0 0.2000000000008322 0  0 0.1500000000006241 0  0 0.100000000000416 0  0 0.05000000000020799 0  0.8494144210950094 0.8566196947606517 0  0.983453674663968 0.5069091934455291 0  0.5294432514547576 0.9809050065295937 0  0.8886318818825905 0.8235651921919431 0  0.8238103791810285 0.8888774705271854 0  0.9841333480788705 0.613528038553363 0  0.6287612357779565 0.9824369147380386 0  0.400710795088061 0.9757119638138718 0  0.5304037323785037 0.04588222333465269 0  0.9874145779184162 0.6820028973017609 0  0.04070620779895433 0.5262021436364777 0  0.9771096254736655 0.4005025321843652 0  0.8045780296022306 0.9240032895328195 0  0.6976113663175858 0.986188405389119 0  0.9255612732471938 0.8050921957700147 0  0.271709594117119 0.9713549408426072 0  0.9701089279105952 0.2679172694670154 0  0.04258710771096617 0.3249728141540066 0  0.989345233446334 0.7404682644334308 0  0.7383901371085857 0.9892155587670114 0  0.3275288458233817 0.03887663965724647 0  0.6809679724782525 0.04226581488237089 0  0.04149618130790375 0.6755529620146821 0  0.9546162738356496 0.7970036807797241 0  0.7954966726629867 0.9532927397678114 0  0.04217721308842222 0.8242845598010563 0  0.8259529687291423 0.04282449368233407 0  0.04620443080955958 0.1751373987797785 0  0.8720928357815755 0.8360950701746372 0  0.9052985763092067 0.8129976405162544 0  0.8137527126360454 0.9061460204196952 0  0.8352479689397839 0.8719147052260546 0  0.9680403202161201 0.1585735113507861 0  0.1582517296044573 0.966374347932868 0  0.9733123028660225 0.339964364408357 0  0.3396792861385616 0.9732597034432448 0  0.9746205580252283 0.7936289837888723 0  0.9882591897141114 0.7617661396082347 0  0.7928715087149018 0.9747898699409376 0  0.762702974819174 0.9902178166832699 0  0.9786640863089593 0.4562252179501825 0  0.9889426306450139 0.7110839111897163 0  0.6672638369048861 0.986860882065277 0  0.9825970996989855 0.5741969981194196 0  0.9833972252321155 0.6500542017053121 0  0.5959715584784082 0.9849343363636308 0  0.4821704365370877 0.9786533187451671 0  0.1792624240485976 0.04487213718297658 0  0.4258062734946816 0.04321553139670942 0  0.04317902467757198 0.4267893407169687 0  0.04005985272792691 0.9268094739612713 0  0.9211018876794245 0.04429277303767368 0  0.04602834517790196 0.08024816312153499 0  0.9901169843775169 0.7850186712147309 0  0.784947278350493 0.9910037497417147 0  0.8739670361451159 0.04250308159459074 0  0.8498236146645999 0.08406143919210242 0  0.8038656839909617 0.08452049041987603 0  0.8263811770947247 0.1233122872224853 0  0.7824806020741409 0.1241937942563245 0  0.8035957429081534 0.1602805713026605 0  0.7624073453321839 0.1617238227724428 0  0.7825077691837788 0.1966253936465426 0  0.7428317389319662 0.1984800227224243 0  0.7636632372042828 0.2326816388200668 0  0.7239839215974921 0.233708359554336 0  0.7443011413059196 0.2672227604586637 0  0.7054669160764291 0.2681258069837783 0  0.7247488450103471 0.3007543592790673 0  0.6870824922681873 0.3016798070977239 0  0.7061756419765203 0.3339731787211987 0  0.6693763255615572 0.3345262071456392 0  0.6878186890424616 0.3661343145028705 0  0.6519757460528561 0.3666386804513909 0  0.6684837224654233 0.3963243985523995 0  0.636123195135697 0.3967953607386087 0  0.6545171997550617 0.4317834304843194 0  0.6163996451089373 0.4253589352883549 0  0.6342585074851026 0.4591955605629988 0  0.6025754478970428 0.4591641031403507 0  0.6189935554230007 0.4880418754350669 0  0.5856495951777626 0.4886017454370276 0  0.6029497736193408 0.5173122671509141 0  0.5696082557464912 0.517830847979232 0  0.5867945897271267 0.5461568864248263 0  0.5536157725358615 0.5467953782962293 0  0.5691230247546334 0.5747603426141618 0  0.5349413629670221 0.5755101770266764 0  0.6026870096924715 0.5740636207191253 0  0.5836961824313297 0.6059147424301551 0  0.6171228429875488 0.6019174548111631 0  0.5728912651181663 0.4605302046571187 0  0.6036401191002235 0.6275384265596726 0  0.6322635811574746 0.6270275603935284 0  0.6187558691146384 0.6517793788685153 0  0.6466844184808563 0.6508913222597119 0  0.6600422270352166 0.6271279832149074 0  0.6738028105811757 0.6503756203872559 0  0.6594011661295597 0.6729385273531415 0  0.6868021147810859 0.6275957173401208 0  0.7001262098893428 0.6501822738033961 0  0.7127301992050469 0.6277978312137666 0  0.7257260460170882 0.6492248266941855 0  0.7377988884660698 0.6280022931856889 0  0.7497048423485101 0.6493824249521576 0  0.7383463578397127 0.6697255012018267 0  0.7613301072244405 0.669486791476343 0  0.7501592513493055 0.6890153509057063 0  0.7728021734241347 0.6498872417333863 0  0.7833807305319909 0.6695367107998763 0  0.5904190995019586 0.6528817226350641 0  0.614491661390588 0.3664863536659438 0  0.7949577929131536 0.6503714122374451 0  0.8052892987328063 0.6693733247333646 0  0.5200503376155321 0.5472608428600889 0  0.5032022922764664 0.5768355272619636 0  0.4856271199368003 0.5476294434450222 0  0.469002438571401 0.5784922422034174 0  0.4506381179882975 0.5482163049207702 0  0.4331393127247383 0.5801840624510834 0  0.4141673393433246 0.5483217641703135 0  0.3964494836904155 0.5810656053068888 0  0.4158308710220929 0.6126981847808772 0  0.7032819433808205 0.4017751863961722 0  0.3795046006826852 0.614091633787413 0  0.3987104826842066 0.6450679868218143 0  0.8167773235687869 0.6506857724115276 0  0.8064525199162121 0.6316159256733551 0  0.8268455256020374 0.6693294296760032 0  0.8166696132988311 0.6870664965888644 0  0.8364401847131291 0.6868887720229622 0  0.8270431775175867 0.7033888388062779 0  0.8453924865805822 0.7035762857993451 0  0.3765676960474216 0.5491479752253317 0  0.3950577672681321 0.5155763902060126 0  0.3622555406860385 0.6467543141015271 0  0.3813934842311098 0.6776286077947784 0  0.3446797260885899 0.6792056536928412 0  0.8366564840891192 0.7190621071142964 0  0.8466608353103623 0.6701275825796829 0  0.3549253501281592 0.517135741274256 0  0.3753879988826255 0.4818674700279389 0  0.8538943158463713 0.7193013265338469 0  0.363922379101219 0.7083637320975911 0  0.3266843989015305 0.646701751992656 0  0.3271595296573627 0.7117384489818321 0  0.4003749052121722 0.7086307249927223 0  0.8453980
[...]
<PointData  Scalars="f_56144"> 
<DataArray  type="Float64"  Name="f_56144"  format="ascii">-7.4660383982921772e+01  -7.8489875365006668e+01  -9.9999999999998948e+01  -9.9999964658815799e+01  -7.8493131795610211e+01  -7.4685168365202699e+01  -7.4750302006730138e+01  -7.4857705821251912e+01  -7.5006385922332683e+01  -7.5188716782243944e+01  -7.5410046431356378e+01  -7.5656017460416322e+01  -7.5925457410089294e+01  -7.6211853986165437e+01  -7.6508080235396164e+01  -7.6809387909056497e+01  -7.7106246862224495e+01  -7.7389472700389163e+01  -7.7656363628161188e+01  -7.7896475002875249e+01  -7.8102643108902939e+01  -7.8269563975279667e+01  -7.8392445218359740e+01  -7.8467456202498198e+01  -7.8552184840524916e+01  -7.8709357109085019e+01  -7.8957987787608573e+01  -7.9286201596899929e+01  -7.9681784149449257e+01  -8.0135703988650846e+01  -8.0640613011863053e+01  -8.1189064019755904e+01  -8.1774532536819933e+01  -8.2393980216482433e+01  -8.3041863308885027e+01  -8.3713607066532944e+01  -8.4406897345919830e+01  -8.5117514167564863e+01  -8.5844571758458173e+01  -8.6584676268029568e+01  -8.7334588471732204e+01  -8.8095216038986919e+01  -8.8864023102979786e+01  -8.9639198665898277e+01  -9.0420476796361172e+01  -9.1205841302565531e+01  -9.1995538726515605e+01  -9.2788847102830132e+01  -9.3584324326439386e+01  -9.4383375845622254e+01  -9.5183270584166081e+01  -9.5982699578022235e+01  -9.6785543633109015e+01  -9.7589095878147305e+01  -9.8391752786343076e+01  -9.9194787049938810e+01  -9.9999982606141842e+01  -1.0000019429335491e+02  -1.0000034966374257e+02  -1.0000032325704352e+02  -1.0000029200931620e+02  -1.0000001475463920e+02  -9.9999640632286770e+01  -9.9999237643031208e+01  -9.9999728344488574e+01  -1.0000061936070185e+02  -1.0000091904581927e+02  -1.0000026187760912e+02  -9.9999569239973795e+01  -9.9999383023032081e+01  -9.9999931448103482e+01  -1.0000050324814757e+02  -1.0000101571062093e+02  -1.0000076990776839e+02  -1.0000035908195413e+02  -9.9999854829124175e+01  -9.9999230344697295e+01  -9.9999651375657777e+01  -9.9999519293354737e+01  -9.9999800900843198e+01  -9.9999890327022683e+01  -9.9999967581438767e+01  -1.0000000023064776e+02  -1.0000000668815196e+02  -1.0000000945114336e+02  -1.0000001027199083e+02  -1.0000000927529283e+02  -9.9195075964393766e+01  -9.8393388307110598e+01  -9.7589674561437363e+01  -9.6786480366542833e+01  -9.5984734252055134e+01  -9.5183403114765881e+01  -9.4384249404689996e+01  -9.3587255738018598e+01  -9.2791247156011266e+01  -9.1997881641127805e+01  -9.1209345125872574e+01  -9.0424963597343165e+01  -8.9642911992548349e+01  -8.8867338945376645e+01  -8.8100760127476761e+01  -8.7339349393629590e+01  -8.6588343904912008e+01  -8.5848258860523202e+01  -8.5122044050162216e+01  -8.4410734217657918e+01  -8.3717501546578816e+01  -8.3045618004183922e+01  -8.2397940703145224e+01  -8.1778441896796537e+01  -8.1191908161784767e+01  -8.0643080848997016e+01  -8.0138278853288725e+01  -7.9684491973957151e+01  -7.9288871262626245e+01  -7.8960530411709044e+01  -7.8711322940925214e+01  -7.8550106009652026e+01  -7.8471772563595735e+01  -7.8392317797196753e+01  -7.8268766049565343e+01  -7.8103072486998457e+01  -7.7896674665676954e+01  -7.7657047322626866e+01  -7.7391365784898056e+01  -7.7106356107876124e+01  -7.6809752091947971e+01  -7.6509378556556854e+01  -7.6211970242093017e+01  -7.5924934345758302e+01  -7.5655465109965178e+01  -7.5409129968335165e+01  -7.5191407373227435e+01  -7.5006036199955759e+01  -7.4858570582554009e+01  -7.4750997778498530e+01  -7.4684743126948220e+01  -9.9358114644171664e+01  -8.5468382483070897e+01  -8.6171377791695477e+01  -9.9301891772120953e+01  -9.9328583455928481e+01  -8.9232096812454984e+01  -8.9871410941344479e+01  -8.2704693356626251e+01  -7.6725273932281169e+01  -9.2372633434511187e+01  -7.6693934038603643e+01  -8.2697515120528351e+01  -9.9220131691379621e+01  -9.3190737891024767e+01  -9.9302098975259156e+01  -8.0373050383695883e+01  -8.0315451514446153e+01  -7.5550190908868700e+01  -9.5694898082035763e+01  -9.5565354902342975e+01  -7.5559975838784013e+01  -7.7594608421197535e+01  -7.7564988478421796e+01  -9.9352643478974912e+01  -9.9213596100950951e+01  -7.8231560169991738e+01  -7.8236949475134523e+01  -7.4946823577271630e+01  -9.9360380256189515e+01  -9.9224302618739131e+01  -9.9307443225216161e+01  -9.9297348645548297e+01  -7.9115030363174711e+01  -7.9113903892087833e+01  -8.1474999366016149e+01  -8.1473708598455929e+01  -9.9359194830665388e+01  -9.7097757804598572e+01  -9.9301482479708611e+01  -9.7168325983318766e+01  -8.4038868695315486e+01  -9.3937276888913146e+01  -9.1639337044389976e+01  -8.7704820067265075e+01  -9.0817528208311018e+01  -8.8534783851843656e+01  -8.4746507189861589e+01  -7.4958406705998598e+01  -7.6097571171166862e+01  -7.6102616576729432e+01  -7.8479484822117072e+01  -7.8477400942295873e+01  -7.4737022012639130e+01  -9.8792190327016328e+01  -9.8789947533036312e+01  -7.8377272203216592e+01  -7.8437119230448104e+01  -7.8281163952319901e+01  -7.8552901981032122e+01  -7.8384001453568303e+01  -7.8710468979992655e+01  -7.8533059035233222e+01  -7.8914424602668390e+01  -7.8725158363583688e+01  -7.9169097780893949e+01  -7.8946817061895686e+01  -7.9440468525021785e+01  -7.9193821916904184e+01  -7.9726059751010183e+01  -7.9456547547134036e+01  -8.0034428378808840e+01  -7.9734633548108476e+01  -8.0344508321607734e+01  -8.0018821768919096e+01  -8.0624426891872361e+01  -8.0296402463371450e+01  -8.1045038650232968e+01  -8.0510371932264519e+01  -8.1262921518486493e+01  -8.0869617419872768e+01  -8.1555181057456309e+01  -8.1113931264566517e+01  -8.1831051377849363e+01  -8.1353090626081141e+01  -8.2079426626153591e+01  -8.1570350523443082e+01  -8.2273721089952687e+01  -8.1716877507269245e+01  -8.2834908186511200e+01  -8.3068214911406798e+01  -8.3618329828460375e+01  -8.0518665527255720e+01  -8.3848988317016065e+01  -8.4417222653823316e+01  -8.4636876862917148e+01  -8.5229696870201437e+01  -8.4987965667604129e+01  -8.5818285800855719e+01  -8.6014653010666407e+01  -8.5550410990344673e+01  -8.6399410062258596e+01  -8.6088035950200222e+01  -8.6939517840766214e+01  -8.6601140396967011e+01  -8.7465630588158049e+01  -8.7812870868245156e+01  -8.8341951313053400e+01  -8.8687057089285886e+01  -8.7971803838263597e+01  -8.8845486499491614e+01  -8.4049299297127661e+01  -7.9655224009079760e+01  -8.8443378419547486e+01  -8.9320927313793590e+01  -8.1064294787801330e+01  -8.1224633002767206e+01  -8.0561445967879337e+01  -8.0716833498038667e+01  -8.0075043337713439e+01  -8.0209477970931303e+01  -7.9590230201747787e+01  -7.9713306308632042e+01  -8.0328408170701280e+01  -8.1058345647662961e+01  -7.9827461042825306e+01  -8.0421019939880793e+01  -8.8882500574274061e+01  -8.8029535990940900e+01  -8.9768986339765476e+01  -9.0229521773211005e+01  -9.0658874199472720e+01  -9.1116939536825527e+01  -9.1552931335060620e+01  -7.9131905742846854e+01  -7.9005682405882894e+01  -7.9909238772005608e+01  -8.0482987512023058e+01  -7.9959283853828680e+01  -9.2012764813387918e+01  -9.0187996853581510e+01  -7.8573736019094127e+01  -7.8450992845728422e+01  -9.2448323598296241e+01  -8.0495727870878710e+01  -7.9438692669709866e+01  -7.9986066901557081e+01  -8.1089659541210438e+01  -9.2896893023160558e+01  -9.2448965102988083e+01  -7.8053455121904079e+01  -7.7927709633259752e+01  -8.1025189827452309e+01  -8.1696815418368374e+01  -7.8937361902551288e+01  -9.3315670028344130e+01  -9.2856397431721220e+01  -8.5760261725189963e+01  -9.3310786206524952e+01  -9.2860998714300791e+01  -7.7574651783379451e+01  -7.7440590590328824e+01  -9.3725362709059212e+01  -9.3237936205882150e+01  -9.3720357973534902e+01  -9.3229915695194705e+01  -9.4101537080945761e+01  -8.1682008902708745e+01  -8.2313870387225023e+01  -7.7799761112997373e+01  -7.7312776429653411e+01  -7.6986275850735296e+01  -7.6865539386591024e+01  -7.7190164128312901e+01  -7.9957248051527927e+01  -9.4113363995603095e+01  -9.3548991269474087e+01  -9.3572902347200241e+01  -7.7715159423255812e+01  -9.4423770266373140e+01  -9.4424283111758740e+01  -9.3827151520949613e+01  -9.2961872059546181e+01  -9.3211953286772285e+01  -9.2350739860467044e+01  -9.2577099732740379e+01  -9.3443600854195722e+01  -9.2774213677371790e+01  -9.1941269760365401e+01  -9.2104989663884965e+01  -9.2963418375030528e+01  -9.2241603234657518e+01  -9.1420153614733906e+01  -9.1499888928963202e+01  -9.0692729273495615e+01  -9.0765580156439569e+01  -8.9935829030597162e+01  -9.0016181864314788e+01  -8.9207227580181112e+01  -8.9237119951570818e+01  -9.2378562320826902e+01  -8.8497988579933903e+01  -8.8514743083201822e+01  -8.7774289418884820e+01  -8.7788378441225788e+01  -8.9860963552409885e+01  -8.7054168399787159e+01  -8.7033398317233406e+01  -7.6571016002116181e+01  -8.2261063547769922e+01  -8.1613628733941525e+01  -8.7740182839857709e+01  -8.6958765919443266e+01  -8.9870948159178425e+01  -7.6756912034355949e+01  -7.7075055233197119e+01  -8.7039167790183555e+01  -8.6347230026205622e+01  -9.4711365245875569e+01  -9.4669896730580646e+01  -8.2323296166397370e+01  -9.3859506636008248e+01  -9.3034297707710067e+01  -8.1990591650831320e+01  -9.4706164651956826e+01  -7.6658230826080413e+01  -7.6971023838002608e+01  -8.2933673268960959e+01  -8.2883548834295368e+01  -8.7629968630695487e+01  -8.6851549771856142e+01  -7.9352398218327565e+01  -9.5282439773696581e+01  -9.5554502302799207e+01  -8.6301465147070218e+01  -7.7419145716726263e+01  -7.7300113471801055e+01  -8.8427107964377910e+01  -8.7586857679160531e+01  -8.7943167700726903e+01  -8.7118206456774971e+01  -8.7439667960598925e+01  -8.6634358906688618e+01  -8.6921557731973252e+01  -8.6134039127798999e+01  -8.5848528325025626e+01  -8.5373487320452952e+01  -8.5081623126757492e+01  -8.4615048776033447e+01  -8.7744090480539853e+01  -8.4317571101468957e+01  -8.3878156406795071e+01  -8.4143587708161121e+01  -8.3425480432549776e+01  -8.6435543097682412e+01  -8.3665611235710514e+01  -8.2974096081799530e+01  -8.6213170700240610e+01  -8.6100814774414772e+01  -8.5616176175097962e+01  -9.3295799665971131e+01  -9.2480118819176553e+01  -7.8510645908119997e+01  -7.6692453171981569e+01  -7.6304492832670860e+01  -7.8879127101658270e+01  -8.4760815835966909e+01  -7.6364624950172328e+01  -9.1967326429285606e+01  -8.8430064428080811e+01  -8.1338816209722694e+01  -9.4706114417724166e+01  -9.5330461419896523e+01  -9.5591385775389526e+01  -7.6428610826070866e+01  -8.3584014402323575e+01  -8.3999401547807878e+01  -7.6884052081642736e+01  -7.7203963721781946e+01  -9.4954056544250790e+01  -8.6737286439470012e+01  -7.6287606974842575e+01  -7.6019404400843769e+01  -8.7491843822042085e+01  -8.8278018682356247e+01  -8.2734838733484892e+01  -8.2310237119489528e+01  -8.2525378943850171e+01  -8.1888790731695522e+01  -9.5785514072862782e+01  -9.6135543172613751e+01  -9.6218916161324387e+01  -8.5552979865793120e+01  -8.6221730595664297e+01  -7.7639719153181602e+01  -7.7528619231127337e+01  -9.6468480128507636e+01  -9.5845386906538010e+01  -8.4885736663692143e+01  -8.5481958402864848e+01  -8.5358860587201391e+01  -8.8134810316084227e+01  -8.9003559333037629e+01  -8.8426473571323726e+01  -8.3262244640026353e+01  -8.3651688927287324e+01  -7.6073105777008124e+01  -9.2709462660419490e+01  -9.1905622109257365e+01  -9.1684837016569688e+01  -9.1100578697727684e+01  -8.9285324459111791e+01  -8.8671968735831697e+01  -9.0875998628971047e+01  -9.0308096483858591e+01  -9.0520196072651558e+01  -8.9744020321659349e+01  -8.2079315077452222e+01  -8.1473804999287324e+01  -7.6820233647207502e+01  -8.2724322236399317e+01  -8.4944253875544717e+01  -9.6691959812736343e+01  -9.6038989084515023e+01  -9.6871289932897142e+01  -9.6190280270335421e+01  -8.4383072998981802e+01  -8.2068087319697369e+01  -9.0057912357252718e+01  -8.9952677345493314e+01  -8.4441839387310480e+01  -8.4124935679338861e+01  -7.8704534822754241e+01  -7.8882322224489783e+01  -8.8120342359106104e+01  -8.8919522617687349e+01  -8.7331972318076950e+01  -8.9081104463319036e+01  -8.9688945132840871e+01  -9.5173329310950336e+01  -8.4810449507898937e+01  -8.4160290302768885e+01  -7.6208921126417849e+01  -7.6571402010175859e+01  -7.5953536925994484e+01  -7.5752342871174505e+01  -7.5641156551683906e+01  -7.7982083458942341e+01  -7.8126238744410912e+01  -7.7850449062121271e+01  -7.7437126943669540e+01  -9.7004386833557191e+01  -9.6297314057048396e+01  -9.7100840550235105e+01  -9.6371500897489312e+01  -9.5566079274043148e+01  -9.5624968360538020e+01  -9.6403670312128654e+01  -9.5637067349702178e+01  -9.6381405732353869e+01  -9.5603342404969425e+01  -9.6317886231975407e+01  -9.5532309336546476e+01  -9.4828848845268723e+01  -9.4749721162563588e+01  -9.4052355785319250e+01  -9.3948161053695671e+01  -9.6236463364250667e+01  -9.3268196612863903e+01  -9.3149132333854993e+01  -9.3810154111020552e+01  -9.2998295979981435e+01  -9.2491134474681942e+01  -9.4889871067396484e+01  -9.2586626580279230e+01  -9.3619271461321333e+01  -9.4443582631060039e+01  -9.2807380682196609e+01  -9.2205615311209328e+01  -8.0413634330088769e+01  -7.5965025697235788e+01  -7.5720718755672578e+01  -9.2431329148882625e+01  -9.2100568952763084e+01  -8.9524851037428135e+01  -9.1804113971340925e+01  -9.5494040150491031e+01  -9.7024634882648826e+01  -9.6907580563172928e+01  -9.7087877216021297e+01  -9.6820401932931802e+01  -9.2098978775223827e+01  -7.5470830395370967e+01  -7.5377524953137979e+01  -9.4226873881353995e+01  -9.5069779782758971e+01  -8.2907424029624750e+01  -9.5977107106087487e+01  -9.6600500756036737e+01  -8.9477545489185488e+01  -8.4768336459763447e+01  -8.4646147670118509e+01  -8.5195067403817205e+01  -8.4479672432444630e+01  -8.3955981516648507e+01  -8.3790223344525373e+01  -8.3286484875963453e+01  -7.7744086728910261e+01  -7.7372098606671486e+01  -7.7663750103684819e+01  -8.4862836185156198e+01  -8.8873351909498922e+01  -8.8043355236726228e+01  -9.2002122653104919e+01  -9.2915626840904579e+01  -8.4880629357259366e+01  -8.4054430680111196e+01  -8.3442003477891021e+01  -8.3320979480835646e+01  -8.2733993217081235e+01  -8.9932619938443281e+01  -8.9163855047072147e+01  -8.1284908545662745e+01  -8.0901333480537801e+01  -8.1070432622625205e+01  -8.0535498695571107e+01  -9.1886623291449951e+01  -7.6370166621076834e+01  -7.6728402099750426e+01  -8.2248151241944740e+01  -9.7166214382879332e+01  -8.8214675861129905e+01  -8.7428012372523327e+01  -7.7336509558801879e+01  -8.9907790178508208e+01  -8.2542919412527596e+01  -7.8177694791560043e+01  -7.6535803422449874e+01  -7.6886076163307749e+01  -9.7716889885231396e+01  -9.7496488729615024e+01  -9.6751176686618308e+01  -9.7300443853684570e+01  -9.5854019228758347e+01  -9.6696397715818122e+01  -9.6399445393958814e+01  -9.7248030798343436e+01  -9.6906753203848922e+01  -9.7567317445071822e+01  -8.6238584512733937e+01  -9.6776135466368174e+01  -9.7403829449403901e+01  -7.7128723020299461e+01  -7.7272897934598348e+01  -7.7557555101659787e+01  -7.7687214826533150e+01  -7.7420853966029028e+01  -7.7812723559175595e+01  -7.8128741961518188e+01  -7.8234208421050454e+01  -7.7930251224048774e+01  -7.8324885546664717e+01  -7.8042048794419543e+01  -7.8400199533251012e+01  -7.8737929463109907e+01  -7.8779074382144032e+01  -7.9159780882652356e+01  -7.9162656717954079e+01  -7.9588737619143558e+01  -7.9549149275995092e+01  -7.9145081626683634e+01  -8.0023149755652526e+01  -7.9490680477358239e+01  -7.9105455528794650e+01  -7.8115020460724963e+01  -7.8806771337540624e+01  -8.0078903396873002e+01  -8.0545896296969971e+01  -8.0450803528100764e+01  -8.1009614351567024e+01  -8.0880821332947249e+01  -8.1559630473901350e+01  -7.8793515442667555e+01  -9.1529310983223240e+01  -8.0982999656157546e+01  -9.7554461672306374e+01  -8.8791548608213347e+01  -8.3468451825339159e+01  -8.3139725751198284e+01  -9.2739568866641008e+01  -9.7682173481118909e+01  -9.7389610062342484e+01  -9.6532028777619175e+01  -9.7064045930032790e+01  -8.7914647447208310e+01  -8.7144160508726387e+01  -9.1429905608932415e+01  -9.1211506720247328e+01  -8.0676308093272624e+01  -8.0179490685725170e+01  -9.7542453775752591e+01  -7.6010872949151732e+01  -8.0337012413623199e+01  -8.2200196631851114e+01  -9.0706683646679949e+01  -9.0665844036270116e+01  -7.8481905087732557e+01  -7.8661744893192093e+01  -7.8289976198143890e+01  -7.8845265330658876e+01  -7.8460175265270053e+01  -7.9028227119632064e+01  -7.8629688430987073e+01  -7.9206238410910274e+01  -7.9451433339323302e+01  -8.0358375305037995e+01  -9.7341961045272981e+01  -8.3880651051757567e+01  -8.4585078790806648e+01  -8.4058925603424669e+01  -8.4734853912236517e+01  -8.5258380190245461e+01  -8.9306350036357699e+01  -7.5684808815112689e+01  -7.5462996677916237e+01  -7.5911993866306418e+01  -9.6205690874286915e+01  -9.6691334102542754e+01  -9.5837307910051564e+01  -8.2878013831373750e+01  -8.3706918415282530e+01  -8.8921913538024782e+01  -8.8391899472756279e+01  -8.8603785835853955e+01  -8.7840441879387527e+01  -9.7569174580538302e+01  -8.7597078328414526e+01  -8.7552134037767232e+01  -8.6830550496271343e+01  -8.7597842355041863e+01  -8.7081899227453860e+01  -9.6574142833394916e+01  -7.7085116637959928e+01  -9.6100675118752719e+01  -7.9140125420043390e+01  -9.7129905042314547e+01  -9.6309788125369550e+01  -9.4364307331435796e+01  -9.4556503626945187e+01  -9.0698552934444407e+01  -9.7943204908797895e+01  -9.7757029640394563e+01  -9.7440342998299840e+01  -8.3542543935450851e+01  -8.1622033133942224e+01  -7.5230696672481798e+01  -7.5153733095844004e+01  -8.7256131581067521e+01  -8.6546281094991599e+01  -8.6713391894562136e+01  -7.8076661664312510e+01  -8.5544472035441487e+01  -7.7710687188830406e+01  -7.8597332626851241e+01  -7.8509777780270554e+01  -8.5395329597814310e+01  -8.4957431394786369e+01  -7.7616922788863619e+01  -9.0105262486541378e+01  -9.1631189944849922e+01  -9.5354746773154915e+01  -8.2665712100452012e+01  -8.2528284407555304e+01  -8.5822848084025537e+01  -7.5596069748575701e+01  -9.4154023091230229e+01  -8.5015568471679273e+01  -8.6039742871464952e+01  -8.4168081089876978e+01  -8.4236658664789829e+01  -8.2627024108051287e+01  -9.2261676309353490e+01  -9.4823234410197230e+01  -8.6591414268206762e+01  -9.2540281749430505e+01  -8.0744684673274975e+01  -8.1276741911031436e+01  -9.3152690428083488e+01  -7.7259905599355591e+01  -9.7944263382921775e+01  -9.7900418341347077e+01  -8.0598554976125726e+01  -8.2781030221523736e+01  -9.7932339223092981e+01  -8.6417664442965545e+01  -9.7921759758342318e+01  -9.8580622416105228e+01  -7.9425596767873856e+01  -9.8133957024640026e+01  -9.1106773310037198e+01  -9.4022470198131202e+01  -9.6150740953811507e+01  -9.1298811353328517e+01  -7.6521389985801562e+01  -7.6508395566380443e+01  -9.6241537561988693e+01  -9.5411803075622302e+01  -8.9732416524127601e+01  -9.0358177484687701e+01  -9.8545428098614281e+01  -9.1837467950431105e+01  -7.8548904411237430e+01  -7.8170508339379495e+01  -7.6097684514185744e+01  -7.8522046282632857e+01  -8.6352565414702582e+01  -8.0237173376497367e+01  -8.2065352051491942e+01  -8.2154978721677651e+01  -7.8562030304137110e+01  -8.2628766881112426e+01  -8.7161256584044310e+01  -7.8770441396828971e+01  -7.6718117406210098e+01  -8.4951152059976764e+01  -7.7307018147401649e+01  -8.7692662538096869e+01  -8.8495090285150141e+01  -7.5562585414356818e+01  -7.8717108175777923e+01  -7.9289967724013849e+01  -8.2475194999708137e+01  -8.1768578033759397e+01  -8.1427187893329744e+01  -8.1158673411233380e+01  -8.0823286345343746e+01  -8.4206064044386039e+01  -7.5462860098789150e+01  -7.5255195078483496e+01  -9.7726483208328887e+01  -8.6691114296767950e+01  -7.5265936077573926e+01  -8.3170474518512776e+01  -8.2490851292314872e+01  -9.1105854133738390e+01  -8.4308680789692929e+01  -8.0308863803285604e+01  -7.9845129624868676e+01  -7.9716240485746908e+01  -7.9435480538738759e+01  -7.9558346075859689e+01  -7.9197285588296396e+01  -8.4614544856244805e+01  -9.4442070905412123e+01  -7.9744706799425970e+01  -8.0133912006172693e+01  -9.0534864282389051e+01  -9.0269099288320675e+01  -9.5689939669979552e+01  -8.986153