<?xml version="1.0"?>
<VTKFile type="UnstructuredGrid"  version="0.1"  >
<UnstructuredGrid>
<Piece  NumberOfPoints="1351" NumberOfCells="2562">
<Points>
<DataArray  type="Float64"  NumberOfComponents="3"  format="ascii">0 0 0  1 0 0  1 0.8 0  0.8 1 0  0 1 0  0.04999999999989965 0 0  0.09999999999981467 0 0  0.1499999999997036 0 0  0.1999999999995579 0 0  0.2499999999994121 0 0  0.2999999999992664 0 0  0.3499999999991206 0 0  0.3999999999989749 0 0  0.4499999999988292 0 0  0.4999999999986943 0 0  0.5499999999988151 0 0  0.5999999999989468 0 0  0.6499999999990784 0 0  0.69999999999921 0 0  0.7499999999993417 0 0  0.7999999999994734 0 0  0.8499999999996051 0 0  0.8999999999997368 0 0  0.9499999999998684 0 0  1 0.04760064517703904 0  1 0.09293547369859796 0  1 0.1361123347647636 0  1 0.1772339446896692 0  1 0.2163981474523055 0  1 0.2536981035911857 0  1 0.2892225557413462 0  1 0.3230560258697512 0  1 0.3552789986794789 0  1 0.3859681333207298 0  1 0.415196447333281 0  1 0.4430334730497988 0  1 0.4695454457650237 0  1 0.4947954273057558 0  1 0.5188434944404815 0  1 0.5417468542718421 0  1 0.5635600026220204 0  1 0.5843348283323352 0  1 0.6041207610617765 0  1 0.6229648698986657 0  1 0.6409119876527072 0  1 0.6580048103873346 0  1 0.6742840004843429 0  1 0.689788292716178 0  1 0.704554571104596 0  1 0.7186179648498481 0  1 0.7320119330818037 0  1 0.7447683411348813 0  1 0.7569175332776136 0  1 0.7684884163604542 0  1 0.7795085179624083 0  1 0.7900040556372674 0  0.8002409087606513 0.990186465100201 0  0.8009630546731077 0.9803965718574617 0  0.8021646980236028 0.9706539049972966 0  0.803842943939466 0.9609819354956644 0  0.8059937493920768 0.9514039638956462 0  0.8086119328939715 0.941943064415883 0  0.8116911870167695 0.9326220291723868 0  0.8152240935828696 0.9234633133214675 0  0.8192021414873284 0.9144889810771035 0  0.8236157472564478 0.9057206523988488 0  0.8284542781220303 0.8971794509576697 0  0.8337060777056721 0.8888859531473721 0  0.8393584939038552 0.880860138831866 0  0.8453979095602623 0.8731213428835916 0  0.8518097751700787 0.8656882087646161 0  0.8585786440513563 0.8585786434740248 0  0.8656882093011211 0.8518097746838188 0  0.8731213434169163 0.845397909122574 0  0.8808601393515808 0.8393584935184084 0  0.8888859536351724 0.8337060773797342 0  0.89717945139612 0.8284542778592333 0  0.9057206528045731 0.8236157470395837 0  0.9144889814663504 0.8192021413032283 0  0.9234633136561681 0.8152240934442321 0  0.9326220294300958 0.8116911869245598 0  0.9419430646417533 0.8086119328254545 0  0.9514039641007579 0.805993749340699 0  0.960981935650111 0.8038429439087447 0  0.9706539051342923 0.8021646980032814 0  0.9803965719143838 0.8009630546675013 0  0.9901864651128812 0.8002409087600284 0  0.7900040556373028 1 0  0.7795085179624827 1 0  0.7684884163605709 1 0  0.7569175332777771 1 0  0.744768341135096 1 0  0.7320119330820745 1 0  0.7186179648501801 1 0  0.7045545711049943 1 0  0.6897882927166487 1 0  0.6742840004848916 1 0  0.6580048103879685 1 0  0.6409119876534327 1 0  0.6229648698994905 1 0  0.6041207610627086 1 0  0.5843348283333843 1 0  0.5635600026231959 1 0  0.5417468542731527 1 0  0.518843494441938 1 0  0.4947954273073689 1 0  0.4695454457668065 1 0  0.4430334730517651 1 0  0.4151964473354446 1 0  0.3859681333229472 1 0  0.3552789986815669 1 0  0.3230560258716914 1 0  0.2892225557431185 1 0  0.253698103592768 1 0  0.2163981474536749 1 0  0.1772339446907993 1 0  0.1361123347656265 1 0  0.0929354736991761 1 0  0.04760064517735429 1 0  0 0.9499999999997918 0  0 0.8999999999995836 0  0 0.8499999999996529 0  0 0.7999999999999998 0  0 0.7500000000003466 0  0 0.7000000000006934 0  0 0.6500000000010401 0  0 0.6000000000013869 0  0 0.5500000000017335 0  0 0.5000000000020587 0  0 0.4500000000018723 0  0 0.4000000000016644 0  0 0.3500000000014564 0  0 0.3000000000012483 0  0 0.2500000000010403 0  0 0.2000000000008322 0  0 0.1500000000006241 0  0 0.100000000000416 0  0 0.05000000000020799 0  0.8494144210950094 0.8566196947606517 0  0.983453674663968 0.5069091934455291 0  0.5294432514547576 0.9809050065295937 0  0.8886318818825905 0.8235651921919431 0  0.8238103791810285 0.8888774705271854 0  0.9841333480788705 0.613528038553363 0  0.6287612357779565 0.9824369147380386 0  0.400710795088061 0.9757119638138718 0  0.5304037323785037 0.04588222333465269 0  0.9874145779184162 0.6820028973017609 0  0.04070620779895433 0.5262021436364777 0  0.9771096254736655 0.4005025321843652 0  0.8045780296022306 0.9240032895328195 0  0.6976113663175858 0.986188405389119 0  0.9255612732471938 0.8050921957700147 0  0.271709594117119 0.9713549408426072 0  0.9701089279105952 0.2679172694670154 0  0.04258710771096617 0.3249728141540066 0  0.989345233446334 0.7404682644334308 0  0.7383901371085857 0.9892155587670114 0  0.3275288458233817 0.03887663965724647 0  0.6809679724782525 0.04226581488237089 0  0.04149618130790375 0.6755529620146821 0  0.9546162738356496 0.7970036807797241 0  0.7954966726629867 0.9532927397678114 0  0.04217721308842222 0.8242845598010563 0  0.8259529687291423 0.04282449368233407 0  0.04620443080955958 0.1751373987797785 0  0.8720928357815755 0.8360950701746372 0  0.9052985763092067 0.8129976405162544 0  0.8137527126360454 0.9061460204196952 0  0.8352479689397839 0.8719147052260546 0  0.9680403202161201 0.1585735113507861 0  0.1582517296044573 0.966374347932868 0  0.9733123028660225 0.339964364408357 0  0.3396792861385616 0.9732597034432448 0  0.9746205580252283 0.7936289837888723 0  0.9882591897141114 0.7617661396082347 0  0.7928715087149018 0.9747898699409376 0  0.762702974819174 0.9902178166832699 0  0.9786640863089593 0.4562252179501825 0  0.9889426306450139 0.7110839111897163 0  0.6672638369048861 0.986860882065277 0  0.9825970996989855 0.5741969981194196 0  0.9833972252321155 0.6500542017053121 0  0.5959715584784082 0.9849343363636308 0  0.4821704365370877 0.9786533187451671 0  0.1792624240485976 0.04487213718297658 0  0.4258062734946816 0.04321553139670942 0  0.04317902467757198 0.4267893407169687 0  0.04005985272792691 0.9268094739612713 0  0.9211018876794245 0.04429277303767368 0  0.04602834517790196 0.08024816312153499 0  0.9901169843775169 0.7850186712147309 0  0.784947278350493 0.9910037497417147 0  0.8739670361451159 0.04250308159459074 0  0.8498236146645999 0.08406143919210242 0  0.8038656839909617 0.08452049041987603 0  0.8263811770947247 0.1233122872224853 0  0.7824806020741409 0.1241937942563245 0  0.8035957429081534 0.1602805713026605 0  0.7624073453321839 0.1617238227724428 0  0.7825077691837788 0.1966253936465426 0  0.7428317389319662 0.1984800227224243 0  0.7636632372042828 0.2326816388200668 0  0.7239839215974921 0.233708359554336 0  0.7443011413059196 0.2672227604586637 0  0.7054669160764291 0.2681258069837783 0  0.7247488450103471 0.3007543592790673 0  0.6870824922681873 0.3016798070977239 0  0.7061756419765203 0.3339731787211987 0  0.6693763255615572 0.3345262071456392 0  0.6878186890424616 0.3661343145028705 0  0.6519757460528561 0.3666386804513909 0  0.6684837224654233 0.3963243985523995 0  0.636123195135697 0.3967953607386087 0  0.6545171997550617 0.4317834304843194 0  0.6163996451089373 0.4253589352883549 0  0.6342585074851026 0.4591955605629988 0  0.6025754478970428 0.4591641031403507 0  0.6189935554230007 0.4880418754350669 0  0.5856495951777626 0.4886017454370276 0  0.6029497736193408 0.5173122671509141 0  0.5696082557464912 0.517830847979232 0  0.5867945897271267 0.5461568864248263 0  0.5536157725358615 0.5467953782962293 0  0.5691230247546334 0.5747603426141618 0  0.5349413629670221 0.5755101770266764 0  0.6026870096924715 0.5740636207191253 0  0.5836961824313297 0.6059147424301551 0  0.6171228429875488 0.6019174548111631 0  0.5728912651181663 0.4605302046571187 0  0.6036401191002235 0.6275384265596726 0  0.6322635811574746 0.6270275603935284 0  0.6187558691146384 0.6517793788685153 0  0.6466844184808563 0.6508913222597119 0  0.6600422270352166 0.6271279832149074 0  0.6738028105811757 0.6503756203872559 0  0.6594011661295597 0.6729385273531415 0  0.6868021147810859 0.6275957173401208 0  0.7001262098893428 0.6501822738033961 0  0.7127301992050469 0.6277978312137666 0  0.7257260460170882 0.6492248266941855 0  0.7377988884660698 0.6280022931856889 0  0.7497048423485101 0.6493824249521576 0  0.7383463578397127 0.6697255012018267 0  0.7613301072244405 0.669486791476343 0  0.7501592513493055 0.6890153509057063 0  0.7728021734241347 0.6498872417333863 0  0.7833807305319909 0.6695367107998763 0  0.5904190995019586 0.6528817226350641 0  0.614491661390588 0.3664863536659438 0  0.7949577929131536 0.6503714122374451 0  0.8052892987328063 0.6693733247333646 0  0.5200503376155321 0.5472608428600889 0  0.5032022922764664 0.5768355272619636 0  0.4856271199368003 0.5476294434450222 0  0.469002438571401 0.5784922422034174 0  0.4506381179882975 0.5482163049207702 0  0.4331393127247383 0.5801840624510834 0  0.4141673393433246 0.5483217641703135 0  0.3964494836904155 0.5810656053068888 0  0.4158308710220929 0.6126981847808772 0  0.7032819433808205 0.4017751863961722 0  0.3795046006826852 0.614091633787413 0  0.3987104826842066 0.6450679868218143 0  0.8167773235687869 0.6506857724115276 0  0.8064525199162121 0.6316159256733551 0  0.8268455256020374 0.6693294296760032 0  0.8166696132988311 0.6870664965888644 0  0.8364401847131291 0.6868887720229622 0  0.8270431775175867 0.7033888388062779 0  0.8453924865805822 0.7035762857993451 0  0.3765676960474216 0.5491479752253317 0  0.3950577672681321 0.5155763902060126 0  0.3622555406860385 0.6467543141015271 0  0.3813934842311098 0.6776286077947784 0  0.3446797260885899 0.6792056536928412 0  0.8366564840891192 0.7190621071142964 0  0.8466608353103623 0.6701275825796829 0  0.3549253501281592 0.517135741274256 0  0.3753879988826255 0.4818674700279389 0  0.8538943158463713 0.7193013265338469 0  0.363922379101219 0.7083637320975911 0  0.3266843989015305 0.646701751992656 0  0.3271595296573627 0.7117384489818321 0  0.4003749052121722 0.7086307249927223 0  0.8453980
[...]
<PointData  Scalars="f_56024"> 
<DataArray  type="Float64"  Name="f_56024"  format="ascii">-5.7064097948144386e+01  -6.3586957943452020e+01  -1.0000000000000003e+02  -9.9999997346917780e+01  -6.3590630398007541e+01  -5.7106314850408644e+01  -5.7217269917332537e+01  -5.7400228292130556e+01  -5.7653486574987333e+01  -5.7964064432222891e+01  -5.8341038928884835e+01  -5.8760057385927986e+01  -5.9219062658085527e+01  -5.9706945512040008e+01  -6.0211560950298171e+01  -6.0724799234021695e+01  -6.1230436095898362e+01  -6.1712840058215640e+01  -6.2167386780907847e+01  -6.2576307664696479e+01  -6.2927414856813627e+01  -6.3211671531849596e+01  -6.3420952973851250e+01  -6.3548723723863056e+01  -6.3692460645058503e+01  -6.3958634989114294e+01  -6.4379675158858078e+01  -6.4935511644127288e+01  -6.5605408200477214e+01  -6.6374075576185575e+01  -6.7229052359634963e+01  -6.8157713197509864e+01  -6.9149010673106858e+01  -7.0197809136572758e+01  -7.1294698430924882e+01  -7.2431946980867025e+01  -7.3605634221657724e+01  -7.4808612525168940e+01  -7.6039398811509173e+01  -7.7292240679848533e+01  -7.8561666419429997e+01  -7.9849218061377982e+01  -8.1150609782002590e+01  -8.2462772939189520e+01  -8.3785264044980266e+01  -8.5114686252348633e+01  -8.6451451607875143e+01  -8.7794327666470096e+01  -8.9140863596865273e+01  -9.0493428452482121e+01  -9.1847394225967903e+01  -9.3200547437131419e+01  -9.4559451591786953e+01  -9.5919502684696894e+01  -9.7278024872245823e+01  -9.8637171099451123e+01  -1.0000004415370172e+02  -1.0000020530690783e+02  -1.0000028895790942e+02  -1.0000023190827190e+02  -1.0000016487217547e+02  -9.9999899286936696e+01  -9.9999709575950988e+01  -9.9999585611081145e+01  -1.0000005395567813e+02  -1.0000062178843426e+02  -1.0000058535102092e+02  -9.9999968146748330e+01  -9.9999538426305676e+01  -9.9999578539971310e+01  -1.0000009107893946e+02  -1.0000048204932604e+02  -1.0000074860120819e+02  -1.0000045575110830e+02  -1.0000012791961974e+02  -9.9999769493377386e+01  -9.9999442536233502e+01  -9.9999760941104540e+01  -9.9999723408528212e+01  -9.9999896196110825e+01  -9.9999954200523632e+01  -9.9999993965823762e+01  -1.0000000506659109e+02  -1.0000000776878996e+02  -1.0000000951650421e+02  -1.0000001008276372e+02  -1.0000000907770782e+02  -9.8637523824712787e+01  -9.7280362175313343e+01  -9.5919794066577978e+01  -9.4560056669431887e+01  -9.3202712659691727e+01  -9.1846037210061127e+01  -9.0493004454751400e+01  -8.9143601594719229e+01  -8.7795885289640054e+01  -8.6452621317951554e+01  -8.5117541248931559e+01  -8.3789525223861958e+01  -8.2465477561613127e+01  -8.1152434325828779e+01  -7.9854763033702227e+01  -7.8565869727631409e+01  -7.7294627565243957e+01  -7.6041834340729707e+01  -7.4812539087829379e+01  -7.3608478848374389e+01  -7.2435036676900339e+01  -7.1297721860665362e+01  -7.0201369021563295e+01  -6.9152691185593440e+01  -6.8159799205084482e+01  -6.7230714522735724e+01  -6.6376107622757829e+01  -6.5607832068085713e+01  -6.4938023481399625e+01  -6.4382090429213562e+01  -6.3960119474660182e+01  -6.3687099917600385e+01  -6.3554244491967658e+01  -6.3419034709763181e+01  -6.3208740095065387e+01  -6.2926675311453273e+01  -6.2575342232440832e+01  -6.2167398319110539e+01  -6.1715063054055648e+01  -6.1229781498248819e+01  -6.0724728149282122e+01  -6.0213224950337796e+01  -5.9706737615908409e+01  -5.9217879524243592e+01  -5.8758926533195691e+01  -5.8339373749289614e+01  -5.7968526565739182e+01  -5.7652790673675504e+01  -5.7401625220506894e+01  -5.7218391797554105e+01  -5.7105573899648647e+01  -9.8913987600350183e+01  -7.5402565233230789e+01  -7.6588786152658614e+01  -9.8818155181184395e+01  -9.8863236374595516e+01  -8.1773657731693689e+01  -8.2852331666818756e+01  -7.0720598562176917e+01  -6.0581288010223702e+01  -8.7089784102330484e+01  -6.0527327008806473e+01  -7.0711670430732951e+01  -9.8679923953946400e+01  -8.8472279933704016e+01  -9.8818827873676710e+01  -6.6773501696360128e+01  -6.6678374881508972e+01  -5.8579548825642135e+01  -9.2713411030215354e+01  -9.2492700421786495e+01  -5.8596395555060354e+01  -6.2061896395070079e+01  -6.2010387231955612e+01  -9.8904352467158219e+01  -9.8668708725312527e+01  -6.3145034228383416e+01  -6.3155750176354253e+01  -5.7551923503912136e+01  -9.8917157183131394e+01  -9.8687079578759025e+01  -9.8828224766716517e+01  -9.8810661581623393e+01  -6.4645533541284863e+01  -6.4641678611023735e+01  -6.8641793671522990e+01  -6.8636796894318579e+01  -9.8915436032001963e+01  -9.5087890206199546e+01  -9.8817656879370134e+01  -9.5206491656347424e+01  -7.2982563678322649e+01  -8.9738316838839879e+01  -8.5845560154035141e+01  -7.9188367989566132e+01  -8.4457372030196524e+01  -8.0589521877699369e+01  -7.4176839450933599e+01  -5.7571717813803815e+01  -5.9512129538404643e+01  -5.9520364113329656e+01  -6.3567057649735446e+01  -6.3565196952438271e+01  -5.7194607173247910e+01  -9.7955774398023280e+01  -9.7951719841869519e+01  -6.3394710871059182e+01  -6.3495487028527499e+01  -6.3229953892414500e+01  -6.3690955921854176e+01  -6.3403437251977294e+01  -6.3957156396403995e+01  -6.3655231232396062e+01  -6.4301946222000652e+01  -6.3979943787586066e+01  -6.4732704422349101e+01  -6.4354755524081526e+01  -6.5191723867494048e+01  -6.4772536929375406e+01  -6.5674841584191000e+01  -6.5216976425254259e+01  -6.6196589720397441e+01  -6.5687498596962755e+01  -6.6721271184106712e+01  -6.6168414660502961e+01  -6.7194868996230852e+01  -6.6638239238250208e+01  -6.7907022978169337e+01  -6.7000252500756616e+01  -6.8275637806878251e+01  -6.7608614369366208e+01  -6.8770436600689919e+01  -6.8022264488128300e+01  -6.9237523504571527e+01  -6.8427274641175302e+01  -6.9658100246806882e+01  -6.8795261355060816e+01  -6.9987119372472350e+01  -6.9043470184502326e+01  -7.0938095413784922e+01  -7.1333162327275673e+01  -7.2265239434359955e+01  -6.7013374033930546e+01  -7.2655809448037445e+01  -7.3618438393150072e+01  -7.3990329647215503e+01  -7.4994501427470240e+01  -7.4585282305010367e+01  -7.5991482246801183e+01  -7.6323843089648832e+01  -7.5538034452558108e+01  -7.6975787057438438e+01  -7.6448713206490581e+01  -7.7890600542645316e+01  -7.7317822194454990e+01  -7.8781659423209206e+01  -7.9369445123505940e+01  -8.0265463327845097e+01  -8.0849631310578260e+01  -7.9638905798516021e+01  -8.1118179410930097e+01  -7.2995019539223080e+01  -6.5551216176785431e+01  -8.0437515745805257e+01  -8.1923283776136202e+01  -6.7937513555044191e+01  -6.8209272126353355e+01  -6.7085170618678006e+01  -6.7348698698825160e+01  -6.6260677264427130e+01  -6.6488863470510765e+01  -6.5438842599638789e+01  -6.5647951238226938e+01  -6.6690892685928588e+01  -6.7930888433175468e+01  -6.5842050465354205e+01  -6.6848410736943720e+01  -8.1181130842953792e+01  -7.9736986726605707e+01  -8.2681983810785468e+01  -8.3461576362546467e+01  -8.4188546957299394e+01  -8.4963967632303820e+01  -8.5702130948746060e+01  -6.4661890505187912e+01  -6.4447386850680758e+01  -6.5981359737124890e+01  -6.6954091461801156e+01  -6.6066966206096723e+01  -8.6480542763296995e+01  -8.3391443538777764e+01  -6.3714969591400163e+01  -6.3506300599164121e+01  -8.7217931352926811e+01  -6.6976393102321850e+01  -6.5184110401518623e+01  -6.6113207010552813e+01  -6.7982384612386952e+01  -8.7977265083400596e+01  -8.7218933967947123e+01  -6.2832020987568299e+01  -6.2618215398167237e+01  -6.7873874623263021e+01  -6.9011271016644415e+01  -6.4336638207237840e+01  -8.8686210513194354e+01  -8.7908763870846528e+01  -7.5893883816646039e+01  -8.8677872455344428e+01  -8.7916393079257887e+01  -6.2019163462177637e+01  -6.1791235867256866e+01  -8.9379739727612858e+01  -8.8554636028130048e+01  -8.9371163550755014e+01  -8.8540853776763228e+01  -9.0016498281064329e+01  -6.8986744676902191e+01  -7.0056716776311475e+01  -6.2400872254924074e+01  -6.1574095853733290e+01  -6.1019679896075054e+01  -6.0814526429032917e+01  -6.1365977654728241e+01  -6.6067692195917274e+01  -9.0036351083324632e+01  -8.9080887870165554e+01  -8.9121645078947694e+01  -6.2258295937922114e+01  -9.0561927407205687e+01  -9.0562581297681106e+01  -8.9551662733899107e+01  -8.8086884881019074e+01  -8.8510123050879841e+01  -8.7052191483430917e+01  -8.7435268377612502e+01  -8.8902123506238269e+01  -8.7768804978124734e+01  -8.6358721053940044e+01  -8.6635720609990443e+01  -8.8088947875144910e+01  -8.6866826962404843e+01  -8.5476168350729452e+01  -8.5610980545233005e+01  -8.4244486184869942e+01  -8.4367644936386156e+01  -8.2962888222296101e+01  -8.3098746481329187e+01  -8.1729181892937135e+01  -8.1779628414984870e+01  -8.7098518682692941e+01  -8.0528254584022164e+01  -8.0556484823873987e+01  -7.9302858698846748e+01  -7.9326608805549412e+01  -8.2835768199371017e+01  -7.8083538180792857e+01  -7.8048314784995455e+01  -6.0314187282902964e+01  -6.9967751102590071e+01  -6.8871528726717315e+01  -7.9244907223487402e+01  -7.7921903123109558e+01  -8.2853205100914082e+01  -6.0630136134288129e+01  -6.1170795078068728e+01  -7.8058203265904154e+01  -7.6886570710349233e+01  -9.1048780514548127e+01  -9.0978502077521966e+01  -7.0072239618348817e+01  -8.9606770827742423e+01  -8.8209893114693912e+01  -6.9508663817251673e+01  -9.1039917791336237e+01  -6.0462814020774843e+01  -6.0994597629719856e+01  -7.1106619062319410e+01  -7.1022097943517721e+01  -7.9058212052630381e+01  -7.7740338397867617e+01  -6.5044376483045966e+01  -9.2015370054600496e+01  -9.2475844645922464e+01  -7.6809100952491463e+01  -6.1755521760410801e+01  -6.1554055405484903e+01  -8.0410259759185379e+01  -7.8987648456475469e+01  -7.9591077489621242e+01  -7.8194357082228933e+01  -7.8738800223748157e+01  -7.7375353033191601e+01  -7.7861801264837467e+01  -7.6528477287419093e+01  -7.6044815375308758e+01  -7.5240745058050848e+01  -7.4746242518366600e+01  -7.3956525249841505e+01  -7.9254346808680381e+01  -7.3452402772132800e+01  -7.2708675443316494e+01  -7.3158551912409337e+01  -7.1942499403910105e+01  -7.7039154844612298e+01  -7.2349537521808784e+01  -7.1178507037228385e+01  -7.6659579903277816e+01  -7.6469368455658199e+01  -7.5648682193619365e+01  -8.8652537032273742e+01  -8.7271777850663668e+01  -6.3615013143775862e+01  -6.0520740638638436e+01  -5.9861397464299763e+01  -6.4232466011687919e+01  -7.4200787839044466e+01  -5.9963620412575999e+01  -8.6403498034208383e+01  -8.0413404902152664e+01  -6.8402926728976666e+01  -9.1039533752693103e+01  -9.2096487252440937e+01  -9.2538042332321950e+01  -6.0072695963672096e+01  -7.2210115636382938e+01  -7.2913169361587592e+01  -6.0847522661178587e+01  -6.1391581486301391e+01  -9.1459492015777826e+01  -7.7549221721480663e+01  -5.9833064074583397e+01  -5.9376849280811236e+01  -7.8824281882183570e+01  -8.0155268937642845e+01  -7.0772840082483384e+01  -7.0054199139108704e+01  -7.0419045166765173e+01  -6.9340903852373870e+01  -9.2866836117457169e+01  -9.3459335204287996e+01  -9.3600351495798193e+01  -7.5541656607406182e+01  -7.6674130167959447e+01  -6.2131339922785308e+01  -6.1943662887760858e+01  -9.4022674741764774e+01  -9.2967888786625394e+01  -7.4411743729237116e+01  -7.5421633803400354e+01  -7.5213293100086076e+01  -7.9914402333286134e+01  -8.1385365845272773e+01  -8.0408094398084671e+01  -7.1664683648941022e+01  -7.2323855734938135e+01  -5.9468280997470906e+01  -8.7659993395464284e+01  -8.6299270135566971e+01  -8.5925525924312112e+01  -8.4936492276432205e+01  -8.1862284050003339e+01  -8.0823615129596220e+01  -8.4556301678887877e+01  -8.3594960132794156e+01  -8.3954028401667529e+01  -8.2640107906951627e+01  -6.9664051410563403e+01  -6.8638531019001960e+01  -6.0739889206989517e+01  -7.0756356710116975e+01  -7.4510913300511305e+01  -9.4400845206362575e+01  -9.3295509823929521e+01  -9.4704304534922215e+01  -9.3551519829671037e+01  -7.3564410690293414e+01  -6.9643514198681217e+01  -8.3171396743965857e+01  -8.2992342550807280e+01  -7.3662062018148475e+01  -7.3124995846768002e+01  -6.3937405937933740e+01  -6.4249511855656237e+01  -7.9888207796954291e+01  -8.1241198932175820e+01  -7.8553556280354314e+01  -8.1514918109609340e+01  -8.2543870946821613e+01  -9.1830621179662273e+01  -7.4284176363751314e+01  -7.3183129554054020e+01  -5.9699627865378453e+01  -6.0315894640753889e+01  -5.9264726868149111e+01  -5.8922744318634990e+01  -5.8733445754737659e+01  -6.2713269362623116e+01  -6.2956994967434689e+01  -6.2490900249192840e+01  -6.1789348281602749e+01  -9.4929545301903971e+01  -9.3732612586124930e+01  -9.5092766052377826e+01  -9.3858082055319599e+01  -9.2494729285795302e+01  -9.2594291000673067e+01  -9.3912415110227926e+01  -9.2614655702788141e+01  -9.3874616628345393e+01  -9.2557459041111713e+01  -9.3767008877873565e+01  -9.2437105147405660e+01  -9.1246276543589929e+01  -9.1112186046575459e+01  -8.9931660011046233e+01  -8.9755113254487924e+01  -9.3629104240985797e+01  -8.8604012880055436e+01  -8.8402276535440052e+01  -8.9521332537291755e+01  -8.8146757961377048e+01  -8.7288366177353112e+01  -9.1349820258586703e+01  -8.7450210446016399e+01  -8.9198038656532745e+01  -9.0593662324083496e+01  -8.7823394965049673e+01  -8.6804656787481065e+01  -6.6834600466961135e+01  -5.9284729225147387e+01  -5.8868984604352214e+01  -8.7189198797564472e+01  -8.6629264515381152e+01  -8.2267671704748921e+01  -8.6125319574810774e+01  -9.2373002669508281e+01  -9.4963369333606565e+01  -9.4765192518297084e+01  -9.5071208700661131e+01  -9.4618547223004953e+01  -8.6626120436702266e+01  -5.8443800021887043e+01  -5.8284922628154362e+01  -9.0226675363777332e+01  -9.1653762822643344e+01  -7.1063217523379222e+01  -9.3191118567529301e+01  -9.4246272598968631e+01  -8.2185811189923427e+01  -7.4213494478651242e+01  -7.4006747605379502e+01  -7.4936066461445151e+01  -7.3725022774984126e+01  -7.2838380538475988e+01  -7.2557913447279873e+01  -7.1705024263020974e+01  -6.2311498112837583e+01  -6.1680014618238516e+01  -6.2176308280882303e+01  -7.4373365924947464e+01  -8.1164434222247735e+01  -7.9759089497408141e+01  -8.6459993676604739e+01  -8.8008966119090559e+01  -7.4403073822094839e+01  -7.3003745051222381e+01  -7.1966519168192718e+01  -7.1761380769710101e+01  -7.0767149759315231e+01  -8.2959404761245523e+01  -8.1658038648826249e+01  -6.8318020404788172e+01  -6.7668844982730874e+01  -6.7955821098918122e+01  -6.7049705220863771e+01  -8.6265192276710252e+01  -5.9974334935160996e+01  -6.0583405378360901e+01  -6.9950342814782786e+01  -9.5203185542508166e+01  -8.0049028214457195e+01  -7.8717011489156079e+01  -6.1620672794579995e+01  -8.2914560687102295e+01  -7.0446264315372630e+01  -6.3052287239783432e+01  -6.0256632462375599e+01  -6.0852200891829881e+01  -9.6135182466450061e+01  -9.5762099347442387e+01  -9.4500386586517820e+01  -9.5430216229624264e+01  -9.2982863881247823e+01  -9.4408625507960210e+01  -9.3906043780310199e+01  -9.5342279350085732e+01  -9.4764687409963415e+01  -9.5882669728322114e+01  -7.6704125598297779e+01  -9.4543538111686502e+01  -9.5605951780337136e+01  -6.1263758549961430e+01  -6.1509604018193350e+01  -6.1992265989086498e+01  -6.2213434611900034e+01  -6.1761940793049909e+01  -6.2427632109330744e+01  -6.2963175289302818e+01  -6.3143324161027330e+01  -6.2628324887590260e+01  -6.3298413773580286e+01  -6.2819243640667324e+01  -6.3427395589775941e+01  -6.3999445391630772e+01  -6.4070388452426954e+01  -6.4715132231257144e+01  -6.4721094116581526e+01  -6.5442601733670884e+01  -6.5376459137965213e+01  -6.4692297026305525e+01  -6.6179032510173300e+01  -6.5278244635275655e+01  -6.4626024938796448e+01  -6.2944321488790536e+01  -6.4119452101615650e+01  -6.6272631133326897e+01  -6.7064127791750906e+01  -6.6903777895173874e+01  -6.7849872238534928e+01  -6.7632323758695733e+01  -6.8781519434201201e+01  -6.4097884730722882e+01  -8.5661583505887805e+01  -6.7800499490221625e+01  -9.5860898337927821e+01  -8.1027386931916169e+01  -7.2011627860708487e+01  -7.1456772102209783e+01  -8.7709333072577166e+01  -9.6077203422405361e+01  -9.5582019942095698e+01  -9.4130500818305819e+01  -9.5030996832045730e+01  -7.9539885420351453e+01  -7.8235553158230047e+01  -8.5491274756062310e+01  -8.5121365007919252e+01  -6.7288739654297075e+01  -6.6447181893565826e+01  -9.5840399673025857e+01  -5.9363265844057373e+01  -6.6711670006255943e+01  -6.9865150622401600e+01  -8.4269726224834088e+01  -8.4200187357642804e+01  -6.3561255898280031e+01  -6.3865489850022342e+01  -6.3234097882702734e+01  -6.4176091970028168e+01  -6.3522308921285905e+01  -6.4485903580880020e+01  -6.3809531324230839e+01  -6.4787471319458334e+01  -6.5212472373459903e+01  -6.6749027970965287e+01  -9.5501243845089306e+01  -7.2714008388507764e+01  -7.3906732500401489e+01  -7.3016129163259450e+01  -7.4160541168087434e+01  -7.5046705758080179e+01  -8.1896441320624589e+01  -5.8808193821493894e+01  -5.8430590785805144e+01  -5.9195021353714800e+01  -9.3578154904596232e+01  -9.4400134081782156e+01  -9.2954642557578410e+01  -7.1016909673194220e+01  -7.2417002144081252e+01  -8.1248411042516892e+01  -8.0351251113944883e+01  -8.0710000057166113e+01  -7.9417796737028638e+01  -9.5885864741738374e+01  -7.9003719713160095e+01  -7.8927065140976879e+01  -7.7705214853113858e+01  -7.9007018683760819e+01  -7.8133697279895856e+01  -9.4200635571161015e+01  -6.1191607361038322e+01  -9.3400383156711371e+01  -6.4680677500992942e+01  -9.5141484115417128e+01  -9.3753055891414334e+01  -9.0461207396020839e+01  -9.0786517574687309e+01  -8.4255881074573310e+01  -9.6518323973898831e+01  -9.6203740101496592e+01  -9.5667762798514957e+01  -7.2136989815492626e+01  -6.8886715081750026e+01  -5.8035123362010374e+01  -5.7904066771769678e+01  -7.8428738376932060e+01  -7.7227071062988131e+01  -7.7510058150719203e+01  -6.2871165093317330e+01  -7.5529676680853271e+01  -6.2256282512885868e+01  -6.3758584303274169e+01  -6.3608941116277329e+01  -7.5276156728294936e+01  -7.4534282925205261e+01  -6.2097969336933105e+01  -8.3251665254563605e+01  -8.5832213708118061e+01  -9.2136288664992776e+01  -7.0654144557738817e+01  -7.0421706107899539e+01  -7.6000403775548250e+01  -5.8657109156152011e+01  -9.0103916174614923e+01  -7.4632257280455363e+01  -7.6369666860095037e+01  -7.3197120348822779e+01  -7.3313042350214559e+01  -7.0585754466853871e+01  -8.6901972800984538e+01  -9.1236293016282303e+01  -7.7299877747856925e+01  -8.7371057013352157e+01  -6.7402240765908260e+01  -6.8305681965744625e+01  -8.8410241564620350e+01  -6.1485176080071483e+01  -9.6520390910355459e+01  -9.6446224315155163e+01  -6.7152557521806514e+01  -7.0849115232850423e+01  -9.6500586945394062e+01  -7.7005717164417945e+01  -9.6482043758785423e+01  -9.7597892262904267e+01  -6.5160307015867744e+01  -9.6841714588271259e+01  -8.4944780176634168e+01  -8.9880535958322596e+01  -9.3485002495302950e+01  -8.5271465486729340e+01  -6.0231424095831493e+01  -6.0210067267367243e+01  -9.3638841726092991e+01  -9.2234406932919256e+01  -8.2618945661242122e+01  -8.3678565267971166e+01  -9.7537668648169003e+01  -8.6182150779333469e+01  -6.3682839665351167e+01  -6.3035004190474027e+01  -5.9509742275567937e+01  -6.3636302964490120e+01  -7.6899005396047741e+01  -6.6543053198587430e+01  -6.9634328179799496e+01  -6.9786440512056686e+01  -6.3705981469658710e+01  -7.0590712084651599e+01  -7.8265434689948847e+01  -6.4059502523126071e+01  -6.0567396982764983e+01  -7.4522779807208138e+01  -6.1571494264601398e+01  -7.9164021981886776e+01  -8.0522418759133970e+01  -5.8599755146091510e+01  -6.3957625282126251e+01  -6.4929298869472859e+01  -7.0332537446585988e+01  -6.9135570153080593e+01  -6.8557857876735952e+01  -6.8102261057923386e+01  -6.7534703082790926e+01  -7.3265438396535870e+01  -5.8430619713555572e+01  -5.8076988885991810e+01  -9.6151429960195060e+01  -7.7470620111486568e+01  -5.8095113497787310e+01  -7.1506342520657839e+01  -7.0354942286213117e+01  -8.4943040754070978e+01  -7.3434815194507479e+01  -6.6666761893134193e+01  -6.5881262064777772e+01  -6.5662359742668627e+01  -6.5187272455700764e+01  -6.5395963897690194e+01  -6.4784231767588210e+01  -7.3952368866490730e+01  -9.0590921870836027e+01  -6.5700616170795612e+01  -6.6364751861219503e+01  -8.3977544974666685e+01  -8.3526449865750891e+01  -9.2705129219556639e+01  -8.283889